BEGIN_CFG
 Size
    10
 Supercell
    1.9550000000000001e+00 0.0000000000000000e+00 1.9550000000000001e+00
    0.0000000000000000e+00 1.9550000000000001e+01 0.0000000000000000e+00
    -1.9550000000000001e+00 0.0000000000000000e+00 1.9550000000000001e+00
 AtomData:  id type       cartes_x      cartes_y      cartes_z           fx          fy          fz
    1 0  0.0000000000000000e+00 0.0000000000000000e+00 0.0000000000000000e+00  9.9999999999999995e-07 -1.1420630000000001e+00 0.0000000000000000e+00
    2 0  0.0000000000000000e+00 1.9550000000000001e+00 1.9550000000000001e+00  -1.9999999999999999e-06 -5.0902000000000003e-02 9.9999999999999995e-07
    3 0  0.0000000000000000e+00 3.9100000000000001e+00 0.0000000000000000e+00  -1.9999999999999999e-06 7.9547000000000007e-02 -1.9999999999999999e-06
    4 0  0.0000000000000000e+00 5.8650000000000002e+00 1.9550000000000001e+00  9.9999999999999995e-07 4.1199999999999999e-04 -9.9999999999999995e-07
    5 0  0.0000000000000000e+00 7.8200000000000003e+00 0.0000000000000000e+00  9.9999999999999995e-07 -7.8647999999999996e-02 -9.9999999999999995e-07
    6 0  0.0000000000000000e+00 9.7750000000000004e+00 1.9550000000000001e+00  -9.9999999999999995e-07 5.1866000000000002e-02 -9.9999999999999995e-07
    7 0  0.0000000000000000e+00 1.1730000000000000e+01 0.0000000000000000e+00  -0.0000000000000000e+00 1.1432750000000000e+00 -9.9999999999999995e-07
    8 1  0.0000000000000000e+00 1.3685000000000000e+01 1.9550000000000001e+00  -1.9999999999999999e-06 3.2951700000000000e-01 1.9999999999999999e-06
    9 1  0.0000000000000000e+00 1.7594999999999999e+01 1.9550000000000001e+00  3.9999999999999998e-06 -3.3362399999999998e-01 5.0000000000000004e-06
    10 2  0.0000000000000000e+00 1.5640000000000001e+01 0.0000000000000000e+00  -9.9999999999999995e-07 6.2100000000000002e-04 -1.9999999999999999e-06
 Energy
    -3.8469147309999997e+01
 PlusStress:  xx          yy          zz          yz          xz          xy
     -4.5882000000000001e-01 -2.4365600000000001e+00 -4.5871000000000001e-01 1.0000000000000001e-05 -0.0000000000000000e+00 1.0000000000000001e-05
END_CFG

BEGIN_CFG
 Size
    8
 Supercell
    2.9222999999999999e+00 0.0000000000000000e+00 0.0000000000000000e+00
    0.0000000000000000e+00 1.2461800000000000e+01 0.0000000000000000e+00
    0.0000000000000000e+00 0.0000000000000000e+00 2.9223900000000000e+00
 AtomData:  id type       cartes_x      cartes_y      cartes_z           fx          fy          fz
    1 0  0.0000000000000000e+00 1.2210400000000000e+01 0.0000000000000000e+00  -9.9999999999999995e-07 -4.9694000000000002e-02 1.1000000000000000e-05
    2 0  1.4611499999999999e+00 1.8091500000000000e+00 1.4612000000000001e+00  -9.9999999999999995e-07 4.8337999999999999e-02 -1.2000000000000000e-05
    3 0  1.4611499999999999e+00 5.0363100000000003e+00 1.4612000000000001e+00  -3.0000000000000001e-06 1.7689000000000000e-02 -3.3000000000000003e-05
    4 0  0.0000000000000000e+00 8.9832000000000001e+00 0.0000000000000000e+00  9.9999999999999995e-07 -1.7094999999999999e-02 3.1999999999999999e-05
    5 1  0.0000000000000000e+00 3.4420799999999998e+00 0.0000000000000000e+00  -9.9999999999999995e-07 -3.4375999999999997e-02 1.5000000000000000e-05
    6 1  1.4611499999999999e+00 1.0577400000000001e+01 1.4612000000000001e+00  -9.9999999999999995e-07 3.4471000000000002e-02 -1.8000000000000000e-05
    7 2  0.0000000000000000e+00 6.2714900000000000e+00 0.0000000000000000e+00  5.0000000000000004e-06 -8.6324999999999999e-02 3.4000000000000000e-05
    8 2  1.4611499999999999e+00 7.7480099999999998e+00 1.4612000000000001e+00  9.9999999999999995e-07 8.6993000000000001e-02 -3.0000000000000001e-05
 Energy
    -3.5437014550000001e+01
 PlusStress:  xx          yy          zz          yz          xz          xy
     -2.9332999999999998e-01 7.0889999999999995e-02 -2.9389999999999999e-01 4.0000000000000003e-05 -1.0000000000000001e-05 1.0000000000000001e-05
END_CFG

BEGIN_CFG
 Size
    5
 Supercell
    2.6044200000000002e+00 0.0000000000000000e+00 0.0000000000000000e+00
    -1.3022100000000001e+00 2.2554900000000000e+00 0.0000000000000000e+00
    -1.9999999999999999e-06 -1.5036600000000000e+00 1.0264400000000000e+01
 AtomData:  id type       cartes_x      cartes_y      cartes_z           fx          fy          fz
    1 0  0.0000000000000000e+00 0.0000000000000000e+00 0.0000000000000000e+00  -0.0000000000000000e+00 6.9999999999999999e-06 8.6600000000000002e-04
    2 1  0.0000000000000000e+00 1.5036600000000000e+00 2.1198600000000001e+00  3.0000000000000001e-06 -2.9799999999999998e-04 9.7420000000000007e-03
    3 1  1.3022100000000001e+00 -7.5183000000000000e-01 8.1445600000000002e+00  -6.0000000000000002e-06 2.9799999999999998e-04 -8.1790000000000005e-03
    4 2  1.3022100000000001e+00 7.5183000000000000e-01 4.1537699999999997e+00  5.0000000000000004e-06 4.0200000000000001e-04 9.6159999999999995e-03
    5 2  -0.0000000000000000e+00 0.0000000000000000e+00 6.1106400000000001e+00  -1.9999999999999999e-06 -4.0800000000000000e-04 -1.2043999999999999e-02
 Energy
    -2.2091819650000001e+01
 PlusStress:  xx          yy          zz          yz          xz          xy
     5.8596000000000004e-01 5.7776000000000005e-01 6.3168000000000002e-01 -2.3500000000000001e-03 -1.0000000000000001e-05 -3.0000000000000001e-05
END_CFG

BEGIN_CFG
 Size
    8
 Supercell
    4.4374900000000004e+00 0.0000000000000000e+00 0.0000000000000000e+00
    3.0000000000000001e-06 4.1491100000000003e+00 0.0000000000000000e+00
    -2.2050000000000001e+00 2.0745600000000000e+00 5.6164100000000001e+00
 AtomData:  id type       cartes_x      cartes_y      cartes_z           fx          fy          fz
    1 0  1.8681200000000000e+00 2.0745600000000000e+00 5.1461600000000001e+00  1.9170000000000001e-03 -1.6500000000000000e-04 7.7799999999999996e-03
    2 0  2.2221799999999998e+00 4.1491100000000003e+00 1.4040999999999999e+00  0.0000000000000000e+00 -5.0000000000000004e-06 -1.9400000000000000e-04
    3 0  3.7123000000000000e-01 4.1491100000000003e+00 3.2784499999999999e+00  -1.7910000000000001e-03 1.4600000000000000e-04 -7.4260000000000003e-03
    4 0  3.4299999999999999e-03 2.0745499999999999e+00 1.4040999999999999e+00  1.2300000000000001e-04 2.5000000000000001e-05 2.6899999999999998e-04
    5 2  2.5868300000000000e+00 4.1491100000000003e+00 4.2079399999999998e+00  1.2510599999999999e-01 -1.6899999999999999e-04 -8.1376000000000004e-02
    6 2  2.4419400000000002e+00 2.0745499999999999e+00 1.1771000000000000e-01  1.0825100000000000e-01 -1.9100000000000001e-04 -1.8112300000000001e-01
    7 2  2.0024099999999998e+00 2.0745600000000000e+00 2.6905000000000001e+00  -1.0854800000000001e-01 1.9500000000000000e-04 1.8086300000000000e-01
    8 2  -3.4748000000000001e-01 2.0745600000000000e+00 4.2166800000000002e+00  -1.2505700000000000e-01 1.6400000000000000e-04 8.1206000000000000e-02
 Energy
    -4.0377502770000000e+01
 PlusStress:  xx          yy          zz          yz          xz          xy
     3.3594000000000002e-01 1.2662999999999999e-01 1.6359000000000001e-01 5.3299999999999997e-03 3.2429999999999998e-01 8.6199999999999992e-03
END_CFG

BEGIN_CFG
 Size
    7
 Supercell
    2.8203399999999998e+00 0.0000000000000000e+00 0.0000000000000000e+00
    7.8999999999999996e-05 3.9626299999999999e+00 0.0000000000000000e+00
    1.3384999999999999e-02 1.9797800000000001e+00 8.7780299999999993e+00
 AtomData:  id type       cartes_x      cartes_y      cartes_z           fx          fy          fz
    1 0  2.4358000000000000e+00 1.9798100000000001e+00 8.3275900000000007e+00  5.4289999999999998e-03 6.8900000000000005e-04 -3.6315199999999997e-01
    2 0  1.0130600000000001e+00 1.9764999999999999e+00 1.0822099999999999e+00  -1.0753000000000000e-02 1.6674999999999999e-02 1.2699360000000000e+00
    3 0  2.4213300000000002e+00 3.9621900000000001e+00 2.5080100000000001e+00  -1.5999999999999999e-05 9.0000000000000006e-05 3.3700000000000001e-04
    4 0  1.0091699999999999e+00 1.9852600000000000e+00 3.9338000000000002e+00  1.0773000000000000e-02 -1.6579000000000000e-02 -1.2707930000000001e+00
    5 0  2.4201600000000001e+00 3.9617300000000002e+00 5.4664599999999997e+00  -5.4729999999999996e-03 -5.6899999999999995e-04 3.6272700000000002e-01
    6 2  9.9116000000000004e-01 1.9782599999999999e+00 6.1490499999999999e+00  8.4720000000000004e-02 2.0691999999999999e-02 7.9697499999999999e-01
    7 2  1.0444599999999999e+00 3.9632800000000001e+00 7.6449999999999996e+00  -8.4679000000000004e-02 -2.0999000000000000e-02 -7.9603000000000002e-01
 Energy
    -3.1486150299999998e+01
 PlusStress:  xx          yy          zz          yz          xz          xy
     1.5644700000000000e+00 1.0763100000000001e+00 4.9248099999999999e+00 -1.0250000000000000e-02 -3.9550000000000002e-02 2.7799999999999999e-03
END_CFG

BEGIN_CFG
 Size
    8
 Supercell
    3.8659599999999998e+00 0.0000000000000000e+00 0.0000000000000000e+00
    1.0000000000000001e-05 4.9710099999999997e+00 0.0000000000000000e+00
    -2.5999999999999998e-05 9.3639200000000000e-01 4.8820100000000002e+00
 AtomData:  id type       cartes_x      cartes_y      cartes_z           fx          fy          fz
    1 0  -1.0000000000000001e-05 5.7359600000000004e+00 4.7403300000000002e+00  -5.7000000000000003e-05 4.8701000000000001e-02 4.0117000000000000e-02
    2 0  1.9329700000000001e+00 1.4768500000000000e+00 1.2204999999999999e+00  6.8999999999999997e-05 2.1200000000000000e-04 -1.5600000000000000e-04
    3 0  3.8659500000000002e+00 3.1251400000000000e+00 2.5826899999999999e+00  5.0000000000000004e-06 -4.8826000000000001e-02 -3.9964000000000000e-02
    4 2  1.9329700000000001e+00 4.4305500000000002e+00 3.6615099999999998e+00  -9.0000000000000002e-06 3.4499999999999998e-04 -4.1300000000000001e-04
    5 2  1.0000000000000001e-05 2.3693599999999999e+00 1.4052999999999999e-01  -1.0800000000000000e-04 1.5737000000000001e-02 -1.8880000000000001e-02
    6 2  1.9329799999999999e+00 3.9623599999999999e+00 1.2204999999999999e+00  1.5999999999999999e-05 5.1999999999999997e-05 3.6999999999999998e-05
    7 2  3.8659400000000002e+00 5.8433999999999997e-01 2.3004699999999998e+00  5.5000000000000002e-05 -1.6149000000000000e-02 1.9407000000000001e-02
    8 2  1.9329600000000000e+00 1.9450499999999999e+00 3.6615099999999998e+00  2.9000000000000000e-05 -7.2000000000000002e-05 -1.4700000000000000e-04
 Energy
    -4.3079350230000003e+01
 PlusStress:  xx          yy          zz          yz          xz          xy
     -1.3308300000000000e+00 -6.3539999999999999e-02 1.6145999999999999e-01 -5.8498000000000006e-01 4.0000000000000002e-04 -2.7000000000000000e-04
END_CFG

BEGIN_CFG
 Size
    2
 Supercell
    2.0641799999999999e+00 0.0000000000000000e+00 2.0641799999999999e+00
    0.0000000000000000e+00 2.9271300000000000e+00 0.0000000000000000e+00
    -2.0641799999999999e+00 0.0000000000000000e+00 2.0641799999999999e+00
 AtomData:  id type       cartes_x      cartes_y      cartes_z           fx          fy          fz
    1 0  0.0000000000000000e+00 0.0000000000000000e+00 0.0000000000000000e+00  9.9999999999999995e-07 -2.5000000000000001e-05 -0.0000000000000000e+00
    2 2  0.0000000000000000e+00 1.4635600000000000e+00 2.0641799999999999e+00  -9.9999999999999995e-07 2.5000000000000001e-05 0.0000000000000000e+00
 Energy
    -1.0529525780000000e+01
 PlusStress:  xx          yy          zz          yz          xz          xy
     -7.1079999999999999e-01 -7.3621999999999999e-01 -7.1079999999999999e-01 1.0000000000000001e-05 -0.0000000000000000e+00 -0.0000000000000000e+00
END_CFG

BEGIN_CFG
 Size
    8
 Supercell
    4.6574400000000002e+00 0.0000000000000000e+00 0.0000000000000000e+00
    -1.8048400000000000e+00 4.2934700000000001e+00 0.0000000000000000e+00
    1.2000000000000000e-05 4.8000000000000001e-05 5.1016100000000000e+00
 AtomData:  id type       cartes_x      cartes_y      cartes_z           fx          fy          fz
    1 0  2.8525700000000001e+00 4.2934700000000001e+00 6.3775999999999999e-01  3.4600000000000001e-04 2.5000000000000001e-04 -5.0299999999999997e-04
    2 0  1.4263100000000000e+00 2.1467499999999999e+00 6.3765000000000005e-01  -2.1400000000000000e-04 -3.4699999999999998e-04 -1.3500000000000000e-04
    3 0  3.7549999999999999e+00 2.1467399999999999e+00 2.2027700000000001e+00  1.4999999999999999e-04 -1.9000000000000001e-05 -5.9867999999999998e-02
    4 0  2.3287499999999999e+00 5.0000000000000002e-05 4.1742400000000002e+00  -1.9799999999999999e-04 3.8000000000000002e-05 6.0025000000000002e-02
    5 1  2.8526099999999999e+00 4.2934900000000003e+00 3.1885500000000002e+00  1.1400000000000001e-04 2.8000000000000000e-05 1.2229999999999999e-03
    6 1  1.4262999999999999e+00 2.1467700000000001e+00 3.1884700000000001e+00  -1.0700000000000000e-04 -3.4000000000000000e-05 1.0720000000000000e-03
    7 2  -9.0241000000000005e-01 2.1467999999999998e+00 4.7397099999999996e+00  4.8999999999999998e-05 -5.1000000000000000e-05 -3.0699500000000002e-01
    8 2  5.2388000000000001e-01 4.2934500000000000e+00 1.6373100000000000e+00  -1.3799999999999999e-04 1.3500000000000000e-04 3.0518099999999998e-01
 Energy
    -3.6300606580000000e+01
 PlusStress:  xx          yy          zz          yz          xz          xy
     7.1565999999999996e-01 1.1208400000000001e+00 7.6090000000000002e-01 -6.0000000000000002e-05 5.0000000000000002e-05 4.8077999999999999e-01
END_CFG

BEGIN_CFG
 Size
    4
 Supercell
    2.0780000000000000e-03 3.6990900000000000e+00 7.4700000000000005e-04
    -3.6990900000000000e+00 -2.0780000000000000e-03 7.4700000000000005e-04
    -1.8492500000000001e+00 1.8492500000000001e+00 3.3149600000000001e+00
 AtomData:  id type       cartes_x      cartes_y      cartes_z           fx          fy          fz
    1 0  0.0000000000000000e+00 0.0000000000000000e+00 0.0000000000000000e+00  4.8000000000000001e-05 6.9999999999999999e-06 2.6999999999999999e-05
    2 2  -3.6993600000000000e+00 1.8468899999999999e+00 1.6582300000000001e+00  9.4850000000000004e-03 9.5729999999999999e-03 -1.0000000000000001e-05
    3 2  -1.8485000000000000e+00 1.8485100000000001e+00 7.5000000000000002e-04  -3.6999999999999998e-05 -5.8000000000000000e-05 -9.9999999999999995e-07
    4 2  -1.8469000000000000e+00 3.6993600000000000e+00 1.6582300000000001e+00  -9.4959999999999992e-03 -9.5219999999999992e-03 -1.5000000000000000e-05
 Energy
    -2.1770995270000000e+01
 PlusStress:  xx          yy          zz          yz          xz          xy
     4.0840000000000001e-02 4.0809999999999999e-02 3.3917000000000003e-01 -1.6559999999999998e-02 1.6549999999999999e-02 -2.7230000000000001e-02
END_CFG

BEGIN_CFG
 Size
    3
 Supercell
    1.9922200000000001e+00 1.5989999999999999e-03 1.9931399999999999e+00
    0.0000000000000000e+00 4.7802899999999999e+00 1.9978199999999999e+00
    -1.9922200000000001e+00 1.5989999999999999e-03 1.9931399999999999e+00
 AtomData:  id type       cartes_x      cartes_y      cartes_z           fx          fy          fz
    1 0  0.0000000000000000e+00 4.6250499999999999e+00 1.9975600000000000e+00  3.0000000000000001e-06 7.4878999999999996e-01 -4.4889999999999999e-03
    2 1  0.0000000000000000e+00 1.6430400000000001e+00 1.9942800000000001e+00  -1.9999999999999999e-06 -1.9177000000000000e-01 5.3980000000000000e-03
    3 2  0.0000000000000000e+00 3.2956799999999999e+00 3.9900899999999999e+00  -9.9999999999999995e-07 -5.5701999999999996e-01 -9.0899999999999998e-04
 Energy
    -1.3841323720000000e+01
 PlusStress:  xx          yy          zz          yz          xz          xy
     -1.3367000000000001e-01 -1.2660400000000001e+00 -1.6106000000000001e-01 -5.1749999999999997e-02 0.0000000000000000e+00 -1.0000000000000001e-05
END_CFG

BEGIN_CFG
 Size
    3
 Supercell
    1.8153699999999999e+00 -1.3700000000000000e-04 1.8159200000000000e+00
    -3.7900000000000000e-04 3.4829699999999999e+00 1.0600000000000000e-04
    -1.7361400000000000e+00 1.7417800000000001e+00 3.5524600000000000e+00
 AtomData:  id type       cartes_x      cartes_y      cartes_z           fx          fy          fz
    1 0  0.0000000000000000e+00 0.0000000000000000e+00 0.0000000000000000e+00  -1.8029999999999999e-03 -1.2000000000000000e-05 1.7860000000000000e-03
    2 2  3.1099999999999999e-02 1.7414099999999999e+00 1.7846599999999999e+00  2.9264999999999999e-02 -4.3000000000000002e-05 -2.9028000000000002e-02
    3 2  4.7759999999999997e-02 3.4832000000000001e+00 3.5838199999999998e+00  -2.7462000000000000e-02 5.5000000000000002e-05 2.7241000000000001e-02
 Energy
    -1.5944428159999999e+01
 PlusStress:  xx          yy          zz          yz          xz          xy
     2.2507700000000002e+00 1.1158999999999999e+00 2.2643900000000001e+00 -8.4000000000000003e-04 -8.0560000000000007e-02 3.4099999999999998e-03
END_CFG

BEGIN_CFG
 Size
    8
 Supercell
    2.7399000000000000e+00 0.0000000000000000e+00 0.0000000000000000e+00
    1.8000000000000000e-05 4.0444699999999996e+00 0.0000000000000000e+00
    1.5999999999999999e-05 6.0999999999999999e-05 8.3664000000000005e+00
 AtomData:  id type       cartes_x      cartes_y      cartes_z           fx          fy          fz
    1 0  2.0000000000000002e-05 1.0000000000000000e-04 8.1262699999999999e+00  5.0000000000000004e-06 -4.3999999999999999e-05 5.7228000000000001e-02
    2 0  2.0000000000000002e-05 2.0222300000000000e+00 2.3317199999999998e+00  -4.3000000000000002e-05 -2.5900000000000001e-04 -5.6875000000000002e-02
    3 1  4.0000000000000003e-05 4.0442499999999999e+00 4.0152999999999999e+00  -1.1000000000000000e-04 4.1500000000000000e-04 -7.1603000000000000e-02
    4 1  3.0000000000000001e-05 2.0225200000000001e+00 6.4427099999999999e+00  -6.2000000000000003e-05 -2.7999999999999998e-04 7.1620000000000003e-02
    5 2  1.3699699999999999e+00 4.0444800000000001e+00 1.8546199999999999e+00  5.1999999999999997e-05 -9.2999999999999997e-05 8.8081999999999994e-02
    6 2  1.3699600000000001e+00 2.7000000000000000e-04 6.0712299999999999e+00  6.9999999999999994e-05 -3.8299999999999999e-04 1.2002100000000000e-01
    7 2  1.3699699999999999e+00 2.0222199999999999e+00 2.3699000000000001e-01  -2.9000000000000000e-05 3.3700000000000001e-04 -8.7856000000000004e-02
    8 2  1.3699600000000001e+00 2.0220400000000001e+00 4.3867799999999999e+00  1.1700000000000000e-04 3.0699999999999998e-04 -1.2061600000000000e-01
 Energy
    -3.9517233869999998e+01
 PlusStress:  xx          yy          zz          yz          xz          xy
     8.3596999999999999e-01 3.0189400000000002e+00 1.0776900000000000e+00 4.6999999999999999e-04 -1.2000000000000000e-04 -2.7999999999999998e-04
END_CFG

BEGIN_CFG
 Size
    4
 Supercell
    2.1186500000000001e+00 -1.2999999999999999e-05 2.1186500000000001e+00
    -5.5000000000000002e-05 5.1881599999999999e+00 1.5000000000000000e-05
    -2.1186500000000001e+00 2.1999999999999999e-05 2.1186500000000001e+00
 AtomData:  id type       cartes_x      cartes_y      cartes_z           fx          fy          fz
    1 0  2.1185900000000002e+00 5.1867700000000001e+00 2.1186600000000002e+00  1.7000000000000000e-05 1.9307999999999999e-02 4.8000000000000001e-05
    2 1  -3.0000000000000001e-05 2.5957499999999998e+00 1.0000000000000001e-05  -9.9999999999999995e-07 -2.3220000000000001e-02 -6.0000000000000002e-06
    3 2  -3.0000000000000001e-05 1.3339700000000001e+00 2.1186699999999998e+00  7.6000000000000004e-05 -4.4242900000000002e-01 -1.2799999999999999e-04
    4 2  -3.0000000000000001e-05 3.8539200000000000e+00 2.1186500000000001e+00  -9.2000000000000000e-05 4.4634099999999999e-01 8.5000000000000006e-05
 Energy
    -1.9772876100000001e+01
 PlusStress:  xx          yy          zz          yz          xz          xy
     -2.7118999999999999e-01 1.7791500000000000e+00 -2.7116000000000001e-01 -1.1000000000000000e-04 -0.0000000000000000e+00 5.1999999999999995e-04
END_CFG

BEGIN_CFG
 Size
    6
 Supercell
    3.9685100000000002e+00 0.0000000000000000e+00 0.0000000000000000e+00
    -3.1700000000000001e-04 7.5699800000000002e+00 0.0000000000000000e+00
    -4.3999999999999999e-05 5.1714099999999996e-01 2.7500700000000000e+00
 AtomData:  id type       cartes_x      cartes_y      cartes_z           fx          fy          fz
    1 0  -2.9999999999999997e-04 7.2136600000000000e+00 4.2275000000000001e-01  5.3999999999999998e-05 -3.1973800000000002e-01 6.0052000000000001e-02
    2 0  1.9841800000000001e+00 1.5112600000000000e+00 1.4952900000000000e+00  -3.3000000000000003e-05 2.1520300000000001e-01 -3.9643999999999999e-02
    3 0  -1.3999999999999999e-04 3.0494400000000002e+00 2.6298100000000000e+00  2.1999999999999999e-05 -2.1467600000000001e-01 3.9539999999999999e-02
    4 0  1.9840599999999999e+00 4.3998699999999999e+00 9.5228000000000002e-01  -2.5999999999999998e-05 3.1981700000000002e-01 -6.0063999999999999e-02
    5 2  3.9682599999999999e+00 5.3426700000000000e+00 2.1987999999999999e+00  -3.0000000000000001e-05 -5.2199000000000002e-02 7.1370000000000001e-03
    6 2  1.9839700000000000e+00 6.7880099999999999e+00 1.9262999999999999e+00  1.2999999999999999e-05 5.1591999999999999e-02 -7.0200000000000002e-03
 Energy
    -2.7989464689999998e+01
 PlusStress:  xx          yy          zz          yz          xz          xy
     9.6439999999999998e-02 1.7047900000000000e+00 1.0580200000000000e+00 -1.4213000000000001e-01 3.3000000000000000e-04 1.6100000000000001e-03
END_CFG

BEGIN_CFG
 Size
    4
 Supercell
    3.9999999999999998e-06 0.0000000000000000e+00 4.4302200000000003e+00
    -5.0000000000000004e-06 4.4302200000000003e+00 0.0000000000000000e+00
    -2.5032100000000002e+00 3.9999999999999998e-06 -3.9999999999999998e-06
 AtomData:  id type       cartes_x      cartes_y      cartes_z           fx          fy          fz
    1 0  0.0000000000000000e+00 0.0000000000000000e+00 0.0000000000000000e+00  -1.1000000000000000e-05 -1.4000000000000000e-05 1.1000000000000000e-05
    2 0  -2.5032100000000002e+00 2.2151100000000001e+00 2.2151100000000001e+00  -1.2999999999999999e-05 1.5000000000000000e-05 -1.7000000000000000e-05
    3 1  -1.2516099999999999e+00 2.2151100000000001e+00 -0.0000000000000000e+00  1.2000000000000000e-05 1.9000000000000001e-05 2.1999999999999999e-05
    4 2  -1.2516099999999999e+00 4.4302200000000003e+00 2.2151100000000001e+00  1.2999999999999999e-05 -1.9000000000000001e-05 -1.5999999999999999e-05
 Energy
    -1.7835875580000000e+01
 PlusStress:  xx          yy          zz          yz          xz          xy
     9.0526900000000001e+00 -1.1419000000000000e-01 -1.1419000000000000e-01 1.0000000000000001e-05 -6.0000000000000002e-05 6.9999999999999994e-05
END_CFG

BEGIN_CFG
 Size
    8
 Supercell
    6.7041599999999999e+00 0.0000000000000000e+00 0.0000000000000000e+00
    1.3085300000000000e+00 4.5232200000000002e+00 0.0000000000000000e+00
    1.5977600000000001e+00 -1.3759300000000001e+00 4.1808600000000000e+00
 AtomData:  id type       cartes_x      cartes_y      cartes_z           fx          fy          fz
    1 0  2.9159000000000002e+00 2.5631499999999998e+00 3.9137300000000002e+00  1.2380600000000000e-01 -3.0574000000000000e-02 2.3654999999999999e-02
    2 0  5.4782799999999998e+00 2.9408200000000000e+00 1.2164999999999999e-01  -8.0890000000000007e-03 -8.5731000000000002e-02 -6.7727999999999997e-02
    3 0  1.3328899999999999e+00 1.6252899999999999e+00 1.2459199999999999e+00  9.4574000000000005e-02 1.0257900000000000e-01 -7.3147000000000004e-02
    4 0  3.9991900000000000e+00 9.0717000000000003e-01 1.3671199999999999e+00  -9.4922000000000006e-02 -1.0291400000000001e-01 7.3558999999999999e-02
    5 0  6.5579599999999996e+00 -4.0837000000000001e-01 2.4913900000000000e+00  9.4830000000000001e-03 8.5791999999999993e-02 6.7664000000000002e-02
    6 0  5.3224700000000000e+00 3.1165900000000000e+00 2.8801600000000001e+00  -1.2437300000000000e-01 3.1230000000000001e-02 -2.3736000000000000e-02
    7 2  2.1623700000000001e+00 3.2882000000000000e-01 3.1359100000000000e+00  5.4408999999999999e-02 -1.2697300000000000e-01 -3.7308000000000001e-02
    8 2  4.7674599999999998e+00 8.2770999999999995e-01 3.6579799999999998e+00  -5.4887999999999999e-02 1.2659100000000001e-01 3.7039999999999997e-02
 Energy
    -3.5596768320000002e+01
 PlusStress:  xx          yy          zz          yz          xz          xy
     -2.6453400000000000e+00 -6.0528999999999999e-01 1.7418000000000000e-01 3.4921999999999997e-01 9.8263999999999996e-01 1.1389000000000001e-01
END_CFG

BEGIN_CFG
 Size
    7
 Supercell
    2.7393600000000000e+00 0.0000000000000000e+00 0.0000000000000000e+00
    -1.3696699999999999e+00 1.3225700000000000e+01 0.0000000000000000e+00
    0.0000000000000000e+00 -2.8684599999999999e-01 2.7395900000000002e+00
 AtomData:  id type       cartes_x      cartes_y      cartes_z           fx          fy          fz
    1 0  1.3696800000000000e+00 1.2334600000000000e+01 1.8850000000000000e+00  -2.4200000000000000e-04 -4.3709999999999999e-03 -8.4599999999999996e-04
    2 0  1.3696699999999999e+00 1.5256200000000000e+00 2.1380599999999998e+00  -5.6700000000000001e-04 2.4618899999999999e-01 2.6159000000000002e-02
    3 0  1.0000000000000001e-05 3.8147099999999998e+00 9.9290000000000000e-01  4.4900000000000002e-04 -2.4681500000000001e-01 -2.6623000000000001e-02
    4 0  1.3696900000000001e+00 6.2313700000000001e+00 1.2459600000000000e+00  9.7000000000000000e-05 4.4110000000000000e-03 4.0600000000000000e-04
    5 1  1.3696900000000001e+00 9.2830100000000009e+00 1.5654800000000000e+00  9.0200000000000002e-04 1.8000000000000001e-04 1.1890000000000000e-03
    6 2  1.0000000000000001e-05 7.8367899999999997e+00 2.9239999999999999e-02  -1.1410000000000001e-03 -1.0066000000000000e-02 -1.9840000000000001e-03
    7 2  0.0000000000000000e+00 1.1016100000000000e+01 3.6213000000000001e-01  5.0199999999999995e-04 1.0472000000000000e-02 1.6990000000000000e-03
 Energy
    -3.0845795020000001e+01
 PlusStress:  xx          yy          zz          yz          xz          xy
     1.1406099999999999e+00 -1.4623200000000001e+00 1.8351100000000000e+00 -3.4153000000000000e-01 -3.1000000000000000e-04 5.3299999999999997e-03
END_CFG

BEGIN_CFG
 Size
    6
 Supercell
    2.9648599999999998e+00 0.0000000000000000e+00 0.0000000000000000e+00
    0.0000000000000000e+00 7.9798499999999999e+00 0.0000000000000000e+00
    7.9999999999999996e-06 0.0000000000000000e+00 2.9648500000000002e+00
 AtomData:  id type       cartes_x      cartes_y      cartes_z           fx          fy          fz
    1 0  2.9648500000000002e+00 0.0000000000000000e+00 0.0000000000000000e+00  2.5000000000000001e-05 -1.4909999999999999e-03 2.6999999999999999e-05
    2 1  1.4824299999999999e+00 1.4084600000000000e+00 1.4824299999999999e+00  6.9999999999999999e-06 -5.2209999999999999e-02 -2.0000000000000002e-05
    3 1  1.4824299999999999e+00 6.5713900000000001e+00 1.4824299999999999e+00  1.2000000000000000e-05 4.8686000000000000e-02 -4.1999999999999998e-05
    4 2  0.0000000000000000e+00 2.7243400000000002e+00 0.0000000000000000e+00  -3.1000000000000001e-05 3.2936000000000000e-02 2.9000000000000000e-05
    5 2  1.4824299999999999e+00 3.9899300000000002e+00 1.4824299999999999e+00  2.5999999999999998e-05 2.3430000000000000e-03 -3.1000000000000001e-05
    6 2  0.0000000000000000e+00 5.2555100000000001e+00 0.0000000000000000e+00  -3.8999999999999999e-05 -3.0263999999999999e-02 3.6999999999999998e-05
 Energy
    -2.7944888649999999e+01
 PlusStress:  xx          yy          zz          yz          xz          xy
     5.6244000000000005e-01 4.5111000000000001e-01 5.6237000000000004e-01 -1.0000000000000001e-05 -1.2999999999999999e-04 2.0000000000000002e-05
END_CFG

BEGIN_CFG
 Size
    4
 Supercell
    3.6113700000000000e+00 0.0000000000000000e+00 0.0000000000000000e+00
    0.0000000000000000e+00 3.6113700000000000e+00 0.0000000000000000e+00
    0.0000000000000000e+00 0.0000000000000000e+00 3.6113700000000000e+00
 AtomData:  id type       cartes_x      cartes_y      cartes_z           fx          fy          fz
    1 1  0.0000000000000000e+00 0.0000000000000000e+00 0.0000000000000000e+00  -4.1999999999999998e-05 -4.1000000000000000e-05 -2.9000000000000000e-05
    2 1  1.8056800000000000e+00 1.8056800000000000e+00 0.0000000000000000e+00  4.5000000000000003e-05 3.6999999999999998e-05 -3.4999999999999997e-05
    3 1  0.0000000000000000e+00 1.8056800000000000e+00 1.8056800000000000e+00  -3.1999999999999999e-05 3.4999999999999997e-05 3.4000000000000000e-05
    4 2  1.8056800000000000e+00 0.0000000000000000e+00 1.8056800000000000e+00  2.9000000000000000e-05 -3.1000000000000001e-05 2.9000000000000000e-05
 Energy
    -1.6602463480000001e+01
 PlusStress:  xx          yy          zz          yz          xz          xy
     -1.1124600000000000e+00 -1.1096900000000001e+00 -1.1114500000000000e+00 -4.0000000000000003e-05 -6.9999999999999994e-05 -9.0000000000000006e-05
END_CFG

BEGIN_CFG
 Size
    8
 Supercell
    2.7760899999999999e+00 0.0000000000000000e+00 0.0000000000000000e+00
    1.9999999999999999e-06 7.7486600000000001e+00 0.0000000000000000e+00
    3.0000000000000001e-06 1.7986300000000000e+00 4.9603500000000000e+00
 AtomData:  id type       cartes_x      cartes_y      cartes_z           fx          fy          fz
    1 0  2.7760899999999999e+00 7.4287799999999997e+00 1.2270000000000000e-02  3.9999999999999998e-06 9.0162000000000006e-02 8.8954000000000005e-02
    2 0  1.3880399999999999e+00 2.1242000000000001e+00 5.3739000000000003e-01  1.2000000000000000e-05 -8.8981000000000005e-02 6.4458000000000001e-02
    3 0  2.7760899999999999e+00 4.5729400000000000e+00 1.0534900000000000e+00  1.9999999999999999e-06 -1.3341000000000000e-02 2.1173600000000001e-01
    4 0  1.3880399999999999e+00 6.6979699999999998e+00 2.4016899999999999e+00  -5.0000000000000004e-06 -1.3531590000000000e+00 -3.7073580000000002e+00
    5 0  1.3880500000000000e+00 3.0398000000000001e+00 3.0140500000000001e+00  -1.4000000000000000e-05 1.2627500000000000e-01 9.1859999999999997e-03
    6 2  2.7760899999999999e+00 1.0561799999999999e+00 2.3347799999999999e+00  -9.0000000000000002e-06 -2.2643099999999999e-01 6.8800000000000000e-02