BEGIN_CFG
 Size
    33
 Supercell
    7.9785000000000004e+00 0.0000000000000000e+00 0.0000000000000000e+00
    0.0000000000000000e+00 7.8570000000000002e+00 -1.2150000000000000e-01
    0.0000000000000000e+00 -1.2150000000000000e-01 7.8570000000000002e+00
 AtomData:  id type       cartes_x      cartes_y      cartes_z           fx          fy          fz
    1 0  2.0605434900000001e+00 3.9138196900000000e+00 5.7233743300000004e+00  1.2035020000000001e+00 -9.1820500000000005e-01 -5.7224200000000003e-01
    2 0  4.2211667200000003e+00 -3.7528863699999998e-02 3.9801003599999998e+00  6.5611000000000003e-02 -6.1395699999999997e-01 -2.0617900000000000e-01
    3 0  1.4148608700000001e-01 -6.2006571900000002e-02 3.8858869999999999e+00  4.7697099999999998e-01 1.2288399999999999e-01 1.2999000000000000e-02
    4 0  4.1568460199999997e+00 3.8504854700000002e+00 3.7167823699999998e+00  6.3434500000000005e-01 -1.6772400000000001e-01 4.3498900000000001e-01
    5 0  4.1879868900000004e+00 3.9721033200000000e+00 -1.8861305800000000e-01  7.6222699999999999e-01 7.0226699999999997e-01 2.1252900000000000e-01
    6 0  1.3985489000000000e+00 1.6192612500000000e-01 -1.7091180500000001e-02  -1.4461100000000000e+00 -8.5218400000000005e-01 -1.0409599999999999e-01
    7 0  6.2485437199999998e+00 5.6700547800000001e+00 3.6613141499999999e+00  6.9209000000000007e-02 3.1394000000000000e-01 1.0364599999999999e+00
    8 0  3.4200008399999998e-01 1.9485303400000000e+00 1.7291484200000000e+00  -1.0806979999999999e+00 -3.8416499999999998e-01 6.0552799999999996e-01
    9 0  6.0470651999999996e+00 5.7635101300000002e+00 -2.1604176500000000e-01  4.6200000000000000e-03 -7.5893299999999997e-01 5.6477900000000003e-01
    10 0  6.2175270600000001e+00 3.8776575800000002e+00 5.7741973299999998e+00  6.3675199999999998e-01 -6.5404200000000001e-01 -1.5521630000000000e+00
    11 0  3.1426280800000000e-01 1.7443632800000000e+00 6.0493137700000004e+00  -5.9368600000000005e-01 -6.2430000000000003e-03 -1.2840279999999999e+00
    12 0  2.2049401700000000e+00 1.8239822500000000e+00 3.8126146200000002e+00  -4.6877500000000000e-01 1.4202630000000001e+00 2.2732300000000000e-01
    13 0  2.9351140500000000e-01 3.7043892100000000e+00 3.7623508600000002e+00  -8.3338400000000001e-01 5.3105400000000003e-01 -1.8627000000000001e-02
    14 0  4.2913568900000003e+00 5.6703817399999998e+00 5.6773288700000002e+00  -1.0690960000000000e+00 5.9615700000000005e-01 -3.9876499999999998e-01
    15 1  2.3341418400000000e+00 5.8185945400000003e+00 -1.8976863399999999e-01  -4.4868200000000003e-01 -1.7516080000000001e+00 -3.7307600000000002e-01
    16 1  2.1489854700000000e-01 4.0115588200000003e+00 -2.2693535200000001e-01  2.7551100000000001e-01 2.3300799999999999e-01 1.2108820000000000e+00
    17 1  6.0859002400000000e+00 -1.8037980400000000e-01 5.7305221800000004e+00  1.3538200000000000e-01 6.4235200000000003e-01 -1.5704410000000000e+00
    18 1  1.8392203400000001e-01 5.9650059600000001e+00 1.6339620600000000e+00  2.8664000000000001e-01 2.6384600000000002e-01 2.2428400000000001e-01
    19 1  4.0904333399999997e+00 2.0081964900000000e+00 5.7377737700000004e+00  8.2336600000000004e-01 -4.9334899999999998e-01 6.6838500000000001e-01
    20 1  4.0931184099999998e+00 5.7796401199999998e+00 1.7458848899999999e+00  1.8475120000000000e+00 7.6875400000000005e-01 7.7196200000000004e-01
    21 1  -9.3852610199999997e-01 1.0903867400000000e-01 7.1281567300000001e-02  1.0052010000000000e+00 -1.4123040000000000e+00 1.5257250000000000e+00
    22 1  2.2212427099999998e+00 3.9338597800000001e+00 1.8459763899999999e+00  -6.6700899999999996e-01 6.7238399999999998e-01 4.1348499999999999e-01
    23 1  6.1324591300000000e+00 1.9213411100000000e+00 3.9255181700000001e+00  6.4695199999999997e-01 5.1869299999999996e-01 -1.6418199999999999e-01
    24 1  4.1550380400000000e+00 2.6359464700000002e-02 -1.1397440200000000e-01  4.9415199999999998e-01 2.9676200000000003e-01 2.8016200000000002e-01
    25 1  2.3848589200000001e+00 -9.3162747000000004e-02 5.6350467300000000e+00  -9.2057000000000000e-01 -8.7838499999999997e-01 -2.9377399999999998e-01
    26 1  2.3109274900000001e+00 5.7733914100000003e+00 3.7408933400000000e+00  -1.6417649999999999e+00 -2.4385000000000001e-01 7.3064899999999999e-01
    27 1  6.0796683500000004e+00 2.2281172900000001e+00 -1.4697787400000001e-01  -9.9904800000000005e-01 1.5633150000000000e+00 -2.7478100000000000e-01
    28 1  4.2635882699999996e+00 1.9007393800000001e+00 1.9315562700000000e+00  -1.3850199999999999e-01 1.4482500000000001e-01 -7.6694300000000004e-01
    29 1  2.4620393500000001e-01 5.7857181899999999e+00 5.6299428599999999e+00  -5.2130999999999997e-02 1.3927659999999999e+00 7.7971100000000004e-01
    30 1  2.4097608600000000e+00 2.2812017800000000e+00 2.9013540100000000e-03  3.7568699999999999e-01 5.7430000000000003e-01 -1.1376139999999999e+00
    31 1  5.9693655899999998e+00 -6.3413251500000004e-02 2.2541854099999998e+00  7.6865399999999995e-01 -4.4426399999999999e-01 -1.1680680000000001e+00
    32 1  2.3371455100000000e+00 -1.4500294200000000e-01 2.1933340000000001e+00  2.1929000000000001e-01 -1.0865000000000000e-01 -1.8231000000000001e-02
    33 1  6.3023647299999999e+00 3.9557888200000000e+00 1.7737192900000001e+00  -3.7212699999999999e-01 -1.0697080000000001e+00 2.0335800000000001e-01
 Energy
    -1.4092402548000001e+02
 PlusStress:  xx          yy          zz          yz          xz          xy
     8.3997900000000001e+01 9.6859780000000001e+01 9.4718950000000007e+01 -1.2000200000000001e+00 -4.6531000000000000e-01 1.0424750000000000e+01
 Feature   FCC	interst
END_CFG

