BEGIN_CFG
 Size
    3
 Supercell
    2.1702499999999998e+00 0.0000000000000000e+00 0.0000000000000000e+00
    9.8359700000000005e-01 2.6985500000000000e+00 0.0000000000000000e+00
    -7.8978199999999998e-01 -7.6078699999999999e-01 3.3769399999999998e+00
 AtomData:  id type       cartes_x      cartes_y      cartes_z
    1 0  8.9563000000000004e-01 1.5099300000000000e+00 3.2819799999999999e+00
    2 0  1.8112800000000000e+00 1.2673200000000000e+00 2.7799000000000001e-01
    3 0  6.9538000000000000e-01 -3.9770000000000000e-01 3.1347600000000000e+00
END_CFG

