BEGIN_CFG
 Size
    24
 Supercell
    6.2668299999999997e+00 0.0000000000000000e+00 0.0000000000000000e+00
    -3.1334100000000000e+00 5.4272299999999998e+00 0.0000000000000000e+00
    0.0000000000000000e+00 0.0000000000000000e+00 5.3491600000000004e+00
 AtomData:  id type       cartes_x      cartes_y      cartes_z           fx          fy          fz
    1 0  3.3834300000000002e+00 0.0000000000000000e+00 0.0000000000000000e+00  3.5665659999999999e+00 -2.0000000000000002e-05 0.0000000000000000e+00
    2 0  4.5751099999999996e+00 2.9301400000000002e+00 0.0000000000000000e+00  -1.7833410000000001e+00 3.0885509999999998e+00 -0.0000000000000000e+00
    3 0  1.4417000000000000e+00 2.4970900000000000e+00 0.0000000000000000e+00  -1.7835850000000000e+00 -3.0883989999999999e+00 1.9999999999999999e-06
    4 0  3.1725800000000000e+00 1.0034700000000001e+00 4.3973300000000002e+00  -3.0940720000000002e+00 -5.6643549999999996e+00 -4.7326110000000003e+00
    5 0  3.8115000000000001e+00 2.2458000000000000e+00 4.3973300000000002e+00  6.4530050000000001e+00 1.5275300000000000e-01 -4.7324840000000004e+00
    6 0  2.4161600000000001e+00 2.1779600000000001e+00 4.3973300000000002e+00  -3.3588920000000000e+00 5.5117849999999997e+00 -4.7325470000000003e+00
    7 0  3.9160000000000000e-02 4.4237599999999997e+00 9.5182999999999995e-01  -3.0942050000000001e+00 5.6647220000000003e+00 4.7325989999999996e+00
    8 0  -7.1726000000000001e-01 3.2492700000000001e+00 9.5182999999999995e-01  -3.3582869999999998e+00 -5.5119899999999999e+00 4.7324489999999999e+00
    9 0  6.7808999999999997e-01 3.1814399999999998e+00 9.5182999999999995e-01  6.4528569999999998e+00 -1.5284000000000000e-01 4.7322930000000003e+00
    10 0  2.4161600000000001e+00 2.1779600000000001e+00 9.5182999999999995e-01  -3.3588930000000001e+00 5.5117849999999997e+00 4.7325470000000003e+00
    11 0  3.1725800000000000e+00 1.0034700000000001e+00 9.5182999999999995e-01  -3.0940729999999999e+00 -5.6643549999999996e+00 4.7326110000000003e+00
    12 0  3.8115000000000001e+00 2.2458000000000000e+00 9.5182999999999995e-01  6.4530050000000001e+00 1.5275500000000000e-01 4.7324849999999996e+00
    13 0  6.7808999999999997e-01 3.1814399999999998e+00 4.3973300000000002e+00  6.4528559999999997e+00 -1.5283900000000000e-01 -4.7322930000000003e+00
    14 0  3.9160000000000000e-02 4.4237599999999997e+00 4.3973300000000002e+00  -3.0942040000000000e+00 5.6647210000000001e+00 -4.7325999999999997e+00
    15 0  -7.1726000000000001e-01 3.2492700000000001e+00 4.3973300000000002e+00  -3.3582850000000000e+00 -5.5119899999999999e+00 -4.7324489999999999e+00
    16 0  4.1459500000000000e+00 0.0000000000000000e+00 1.4403699999999999e+00  4.3950820000000004e+00 -1.3600000000000000e-04 1.9547159999999999e+00
    17 0  -2.0729700000000002e+00 3.5905000000000000e+00 1.4403699999999999e+00  -2.1977490000000000e+00 3.8062700000000000e+00 1.9548040000000000e+00
    18 0  1.0604400000000000e+00 1.8367400000000000e+00 1.4403699999999999e+00  -2.1975929999999999e+00 -3.8063099999999999e+00 1.9548280000000000e+00
    19 0  4.1459500000000000e+00 0.0000000000000000e+00 3.9087900000000002e+00  4.3950820000000004e+00 -1.3600000000000000e-04 -1.9547159999999999e+00
    20 0  -2.0729700000000002e+00 3.5905000000000000e+00 3.9087900000000002e+00  -2.1977490000000000e+00 3.8062710000000002e+00 -1.9548040000000000e+00
    21 0  1.0604400000000000e+00 1.8367400000000000e+00 3.9087900000000002e+00  -2.1975950000000002e+00 -3.8063110000000000e+00 -1.9548280000000000e+00
    22 0  5.0532599999999999e+00 0.0000000000000000e+00 2.6745800000000002e+00  4.8214709999999998e+00 -4.6999999999999997e-05 0.0000000000000000e+00
    23 0  3.7402000000000002e+00 4.3762499999999998e+00 2.6745800000000002e+00  -2.4107400000000001e+00 4.1755509999999996e+00 -9.9999999999999995e-07
    24 0  6.0679000000000005e-01 1.0509800000000000e+00 2.6745800000000002e+00  -2.4106619999999999e+00 -4.1754369999999996e+00 -0.0000000000000000e+00
 Energy
    -1.0909329262999999e+02
 PlusStress:  xx          yy          zz          yz          xz          xy
     1.3651725999999999e+02 1.3651577000000000e+02 1.1676130000000001e+02 -0.0000000000000000e+00 0.0000000000000000e+00 -5.2999999999999998e-04
END_CFG

