BEGIN_CFG
 Size
    108
 Supercell
    1.1984152500000000e+01 0.0000000000000000e+00 0.0000000000000000e+00
    0.0000000000000000e+00 1.1984152500000000e+01 0.0000000000000000e+00
    0.0000000000000000e+00 0.0000000000000000e+00 1.1984152500000000e+01
 AtomData:  id type       cartes_x      cartes_y      cartes_z           fx          fy          fz
    1 0  9.7250681207099998e-01 7.4226827053699997e+00 6.4615779628399999e+00  -7.3499999999999999e-01 -1.0612150000000000e+00 -3.5682500000000000e-01
    2 0  8.9745857851299995e+00 3.2637014665600002e+00 6.5321420138799997e+00  -8.6110500000000001e-01 1.2304200000000000e-01 -1.2824089999999999e+00
    3 0  1.1114544209299999e+00 1.3718959233200001e+00 6.5648126662799999e-01  3.6604900000000001e-01 -2.8010499999999999e-01 -5.8084599999999997e-01
    4 0  4.9234360575400000e+00 5.3584373636400002e+00 8.4544803512500000e+00  4.2249999999999996e-03 -2.9302000000000000e-01 -6.1028800000000005e-01
    5 0  2.9032813592000002e+00 7.3018676144599999e+00 4.5601215819199998e+00  -1.2432300000000000e-01 1.7236000000000001e-02 -4.3222999999999998e-02
    6 0  9.0502188660100007e+00 -5.7315233635499996e-01 -1.3254589627600000e+00  3.5977500000000001e-01 -7.8489399999999998e-01 -1.2212369999999999e+00
    7 0  4.9796676506499997e+00 -7.6926494725700001e-01 -1.4345759515900001e+00  -9.8825499999999999e-01 4.9080499999999999e-01 -7.7078000000000002e-01
    8 0  4.9132998132300001e+00 3.3695833990400001e+00 -1.5526101405499999e+00  7.6395700000000000e-01 -1.2333959999999999e+00 3.2626100000000002e-01
    9 0  3.0188330501000000e+00 3.2073788586599998e+00 8.6408304148500008e+00  -6.1062000000000005e-01 -2.2185199999999999e-01 -1.1823129999999999e+00
    10 0  8.9160181103900005e+00 7.2180286698099998e+00 2.5845353843200001e+00  -5.5295799999999995e-01 -1.5248800000000001e-01 8.4493399999999996e-01
    11 0  9.0559382478400003e+00 9.2908582764999998e+00 5.2992919068000000e-01  -3.0833600000000000e-01 -3.2981899999999997e-01 -4.9951099999999998e-01
    12 0  1.0798465573000000e+01 9.2471484982199996e+00 6.5189600120900000e+00  2.4053600000000000e-01 1.5668990000000000e+00 -3.4756100000000001e-01
    13 0  9.0940064351800007e+00 7.2865322228700000e+00 6.7197013529699996e+00  4.0068300000000001e-01 -7.4356999999999995e-01 -1.2791429999999999e+00
    14 0  8.9875039676800004e+00 5.2670966561899997e+00 8.5782274541499994e+00  2.7110000000000001e-01 3.3623000000000000e-02 -4.1946499999999998e-01
    15 0  1.1465316902700000e+00 1.1744688145700000e+00 8.5848104367300007e+00  -3.7690000000000002e-03 -3.2151999999999997e-01 -3.7290099999999998e-01
    16 0  8.8868839023100001e+00 7.4217755877600000e+00 -1.5013736248100000e+00  7.6153499999999996e-01 6.9171199999999999e-01 7.1790000000000007e-02
    17 0  7.0180795824700004e+00 -8.1561528185700005e-01 4.4955484171500002e+00  -1.0513000000000000e-02 3.0526300000000001e-01 5.1688100000000003e-01
    18 0  2.9880320728599998e+00 9.1388829603099992e+00 2.5735843836300001e+00  -1.3719799999999999e-01 -7.7697000000000002e-02 -6.5101600000000004e-01
    19 0  9.0330047065100008e+00 1.2504793031699999e+00 8.6071191064899999e+00  1.4805299999999999e-01 -2.5358199999999997e-01 -4.9431000000000003e-02
    20 0  9.0036113286499997e-01 7.2113045791900001e+00 -1.3382224969500001e+00  -1.5344099999999999e-01 6.9775200000000004e-01 7.9601699999999997e-01
    21 0  2.9729595697900000e+00 5.3333749917200004e+00 -1.4528330877700000e+00  -3.2638600000000001e-01 4.8038599999999998e-01 4.9324099999999999e-01
    22 0  8.8237317245000000e+00 3.3403081320600001e+00 2.6808702405300000e+00  -2.6152399999999998e-01 2.3266999999999999e-01 9.1928200000000004e-01
    23 0  1.0918163620100001e+00 -7.6811171843699999e-01 -1.3940583156099999e+00  4.6479599999999999e-01 -3.7006600000000001e-01 9.7095000000000001e-02
    24 0  3.0202467044699999e+00 -8.2277980774000004e-01 4.5882494585500000e+00  7.2772199999999998e-01 7.4947000000000000e-02 8.0488999999999999e-01
    25 0  4.8676422230299998e+00 7.2316487850400000e+00 6.3695479985999999e+00  4.6865699999999999e-01 1.0427000000000000e-01 -2.5738600000000000e-01
    26 0  7.0750406042999998e+00 9.1489078401799997e+00 6.5729577561500001e+00  -2.9371700000000001e-01 7.7569600000000005e-01 -7.6250200000000001e-01
    27 0  1.0998360112300000e+01 1.1680520765200000e+00 6.3829315298499996e+00  -9.8724999999999993e-02 -1.0389040000000000e+00 3.0523200000000000e-01
    28 0  3.2366486441000002e+00 3.4181510992100002e+00 5.2619212303100005e-01  -6.0365700000000000e-01 -5.1119700000000001e-01 1.2565000000000001e-01
    29 0  9.1080007502200004e+00 1.2906384517900000e+00 5.9461655479400000e-01  -3.3968900000000002e-01 7.9293000000000002e-02 2.9016000000000000e-02
    30 0  7.0262615190900002e+00 1.2412173714700001e+00 2.5651901009400002e+00  -5.4463200000000001e-01 -2.1553500000000000e-01 5.7232700000000003e-01
    31 0  4.8953604988799997e+00 9.2215960964299999e+00 5.3612310119999995e-01  -4.2400100000000002e-01 -8.2027799999999995e-01 -5.4402300000000003e-01
    32 0  6.9622747509999998e+00 5.3054308989300001e+00 -1.5100079752000000e+00  -4.0461799999999998e-01 5.5671999999999999e-01 7.3089000000000004e-01
    33 0  7.0815906398299999e+00 7.2368966319799997e+00 8.4416681632199992e+00  -1.1513850000000001e+00 6.2233600000000000e-01 6.6158300000000003e-01
    34 0  2.9496323620100000e+00 3.2612076179599998e+00 4.5941720002100004e+00  5.3913299999999997e-01 1.0084400000000000e-01 1.1969160000000001e+00
    35 0  1.0930331814800001e+01 5.2917628699600003e+00 -1.5106709244100001e+00  8.1906000000000001e-01 -1.3262299999999999e-01 1.9813000000000000e-01
    36 0  1.0921031899700001e+01 3.3163614498900000e+00 8.4207687771500002e+00  1.2728619999999999e+00 -5.0084999999999998e-02 4.5755699999999999e-01
    37 0  7.0830359757499997e+00 3.2258598232200000e+00 8.4998920763699992e+00  -1.0725180000000001e+00 -5.8549300000000004e-01 -1.9620099999999999e-01
    38 0  5.0497766744900003e+00 3.3015554118299999e+00 2.6360077314399999e+00  3.3014199999999999e-01 6.9009000000000001e-02 5.2999200000000002e-01
    39 0  1.0885963083200001e+00 3.3834794902300001e+00 2.5259050411700001e+00  -2.7924199999999999e-01 -1.7093000000000001e-02 9.7129999999999994e-03
    40 0  6.9159470425700000e+00 -6.9229840136400000e-01 4.7984142332700003e-01  -2.0162300000000000e-01 4.6256599999999998e-01 2.1090999999999999e-01
    41 0  1.0940082563700001e+01 5.2882934047800001e+00 2.6334474064500002e+00  8.1384000000000001e-01 1.1548000000000000e+00 2.8988399999999998e-01
    42 0  9.8297801444499999e-01 1.2311633722999999e+00 4.4380985562299999e+00  1.3744500000000001e-01 -3.3136800000000000e-01 6.0343700000000000e-01
    43 0  1.0957134645400000e+01 3.2617277951400001e+00 4.5665975049199998e+00  2.1995500000000001e-01 4.9409700000000001e-01 2.5567499999999999e-01
    44 0  1.0858389671699999e+01 3.2820683602899998e+00 5.8022403254999999e-01  9.3096400000000001e-01 -1.2038500000000001e-01 -4.7038099999999999e-01
    45 0  1.1055661638000000e+01 -6.7920306341199999e-01 5.5458220980899997e-01  1.3032600000000000e-01 -2.5951400000000002e-01 7.5912999999999994e-02
    46 0  8.9066337568999998e-01 -8.6084612601999999e-01 2.6802127710699999e+00  9.9564000000000000e-02 -2.3635000000000000e-02 -2.8570499999999999e-01
    47 0  7.1496383712800000e+00 -8.2082484321100002e-01 8.5490301647999996e+00  -6.1451699999999998e-01 1.0879900000000001e-01 -4.6022000000000002e-01
    48 0  8.9917032282800005e+00 5.3367547017800003e+00 5.9411038003799999e-01  -4.1652299999999998e-01 4.1919099999999998e-01 -1.8326700000000001e-01
    49 0  1.0721780137200000e+01 9.2879689975200002e+00 2.5918982648700002e+00  9.3662400000000001e-01 -2.9870600000000003e-01 1.0833969999999999e+00
    50 0  7.0358814986900002e+00 3.3885520095700001e+00 4.8163602500800001e-01  -5.0226700000000002e-01 -4.4284200000000001e-01 -4.7291000000000000e-02
    51 0  6.9285365124100000e+00 9.2252169139200006e+00 2.3360979322700000e+00  -3.4949100000000000e-01 -2.9431000000000002e-01 1.3563200000000000e+00
    52 0  2.7871553084100000e+00 7.3634643512000002e+00 8.5191864681799991e+00  1.2022409999999999e+00 -1.2088200000000000e-01 1.7169899999999999e-01
    53 0  9.5092069000900004e-01 9.2238157577699997e+00 8.5370014213199994e+00  -3.6986900000000000e-01 1.3049130000000000e+00 1.2757700000000000e-01
    54 0  2.9529320383100002e+00 5.4268406048399997e+00 2.6298975252400001e+00  1.7902199999999999e-01 7.6464100000000002e-01 -6.4115100000000003e-01
    55 1  6.9630194760600004e+00 5.3458134283299996e+00 2.5963883561399999e+00  2.7646500000000002e-01 -2.7140900000000001e-01 -1.9384699999999999e-01
    56 1  9.4693199079599999e-01 -7.7560943801399995e-01 6.4871509136899999e+00  -2.7657999999999999e-02 2.5521600000000000e-01 -5.7214000000000001e-02
    57 1  8.9476557149100007e+00 3.4308444213299998e+00 -1.4076793835600001e+00  1.9318399999999999e-01 3.3177200000000001e-01 7.0321999999999996e-02
    58 1  4.8922990729900002e+00 1.1673407448999999e+00 6.6419167151600000e-01  3.3327699999999999e-01 1.7828500000000000e-01 1.2642100000000001e-01
    59 1  3.0206896345600001e+00 1.2618943406500001e+00 -1.2938405123500001e+00  -7.7010999999999996e-02 1.2855400000000000e-01 -7.2831999999999994e-02
    60 1  3.0922082253499998e+00 -8.8577444289300000e-01 8.4488148304999999e+00  -2.5622000000000000e-01 1.4978600000000000e-01 1.4196200000000000e-01
    61 1  4.8792260737800000e+00 3.1242330990600000e+00 6.5480272251800002e+00  5.8421000000000001e-02 1.3070399999999999e-01 3.1175999999999999e-02
    62 1  4.9523734964099999e+00 7.2672180865599998e+00 -1.5873172503399999e+00  -1.1273999999999999e-02 -3.4410900000000000e-01 -2.0638000000000001e-01
    63 1  6.9279798002400002e+00 1.4083056454800000e+00 -1.5394025151899999e+00  2.9208600000000001e-01 -1.4535400000000001e-01 7.4121999999999993e-02
    64 1  1.1076300464699999e+01 1.2944023350900000e+00 2.5810534868500001e+00  1.7060800000000001e-01 1.8357899999999999e-01 -3.3447900000000003e-01
    65 1  1.1037383688400000e+00 5.2228155891499997e+00 4.9133648088100002e-01  -5.8415000000000002e-02 -1.8470500000000001e-01 1.7557100000000000e-01
    66 1  6.8499398845100004e+00 5.1973573582899997e+00 6.4851574271199999e+00  6.5283999999999995e-02 6.3802999999999999e-02 4.6757399999999999e-01
    67 1  5.1621094416600002e+00 -9.1951446712399998e-01 6.5027540300600002e+00  2.6876000000000001e-02 1.3491800000000001e-01 8.9449000000000001e-02
    68 1  2.9356150965999999e+00 7.2654709697500000e+00 5.5016627186699996e-01  5.0428000000000001e-02 1.1620999999999999e-01 -3.9108999999999998e-02
    69 1  9.0796826729400006e+00 9.3965534466200005e+00 8.5465675876000002e+00  -2.5957400000000003e-01 -4.1787999999999997e-01 -2.1761800000000001e-01
    70 1  1.0850252468800001e+01 7.2138745898599996e+00 6.6215223936599998e-01  -3.1217000000000000e-01 3.1302999999999997e-02 -1.3282000000000000e-02
    71 1  9.7818231246400000e-01 3.1705835554099999e+00 6.7498840971299998e+00  -1.6289500000000001e-01 -2.6398199999999999e-01 -2.0827200000000001e-01
    72 1  8.8558979056999991e+00 1.2960864029500001e+00 4.5914493845099997e+00  2.0534700000000000e-01 2.4263599999999999e-01 -8.4478999999999999e-02
    73 1  6.9045123471099998e+00 7.1842252579799997e+00 4.6027465050199998e+00  2.0179600000000000e-01 4.2188999999999997e-02 5.2463999999999997e-02
    74 1  1.0812529036000001e+01 -6.4480008668099997e-01 4.5049829972900000e+00  1.9335300000000000e-01 -1.1362100000000000e-01 -6.7344000000000001e-02
    75 1  1.1017863748200000e+01 5.4029348066200003e+00 6.7753346069599996e+00  -5.2006600000000003e-01 -2.8310700000000000e-01 -1.8504100000000001e-01
    76 1  5.0450471899200000e+00 7.1625393383400002e+00 2.6676982359000001e+00  -3.0128100000000002e-01 2.3282900000000001e-01 -2.6547999999999999e-02
    77 1  1.1073355103300001e+01 7.2994706577799997e+00 8.6756668826900007e+00  -1.5337700000000001e-01 7.5593999999999995e-02 3.8032000000000003e-02
    78 1  8.4430984841300005e-01 9.1589458204700005e+00 6.3206813400999995e-01  -5.2243999999999999e-02 3.4763600000000000e-01 2.4973200000000001e-01
    79 1  2.9117244727600000e+00 1.3734240925800001e+00 2.6730133761700001e+00  -1.6141100000000000e-01 1.2017799999999999e-01 -6.9207000000000005e-02
    80 1  6.9540060298400004e+00 7.3030980564299997e+00 6.3709022599400000e-01  3.9505499999999999e-01 1.5130099999999999e-01 3.9540000000000000e-03
    81 1  1.0916811245000000e+01 9.2374427180899996e+00 -1.3451756595000000e+00  -1.1940500000000000e-01 2.3640000000000000e-01 4.7431000000000001e-02
    82 1  1.1159978019600000e+01 -7.8025986556200000e-01 8.6232545530400007e+00  7.2828000000000004e-02 4.6342000000000001e-02 7.5820000000000002e-03
    83 1  1.1192930867699999e+01 1.2839572111499999e+00 -1.5268796562000000e+00  -2.5398799999999999e-01 -2.7217100000000000e-01 3.4244599999999997e-01
    84 1  5.1428450198700002e+00 5.4833845427499996e+00 5.4582267192900003e-01  -2.4014900000000000e-01 -6.7316600000000004e-01 -1.1923000000000000e-01
    85 1  5.0371011330900002e+00 9.1848922806100006e+00 4.6243409910600004e+00  -1.4501600000000001e-01 -5.1833999999999998e-02 -1.3540400000000000e-01
    86 1  6.8885314004099998e+00 1.1550720627500000e+00 6.5584172551500002e+00  6.5276000000000001e-02 3.0791400000000002e-01 1.9598800000000000e-01
    87 1  1.0987699060900001e+01 7.4080239095099998e+00 4.5948885891400000e+00  -1.9901099999999999e-01 -6.3691999999999999e-02 1.6677000000000000e-01
    88 1  9.1241403325500006e+00 5.4838003116699996e+00 4.5278473440300004e+00  -9.5474000000000003e-02 -3.8847900000000002e-01 -1.3095599999999999e-01
    89 1  6.9674994072300001e+00 3.3274517013199998e+00 4.5695243483799999e+00  -7.6442999999999997e-02 -1.7172000000000001e-01 -1.6521000000000000e-01
    90 1  4.9320764132199999e+00 5.1608839104499999e+00 4.5549414816400002e+00  -1.8844300000000000e-01 3.7890000000000000e-02 -1.6164000000000001e-01
    91 1  2.9034864513200001e+00 5.0738253638400002e+00 6.5940222482399999e+00  2.7459800000000001e-01 3.5526999999999997e-01 9.7194000000000003e-02
    92 1  8.0113116932899997e-01 9.3487528895499992e+00 4.5646742708700003e+00  3.4750199999999998e-01 -1.2422700000000000e-01 -2.2137899999999999e-01
    93 1  5.0709623689300001e+00 1.1487219795900001e+00 4.4741626550399998e+00  1.2317900000000000e-01 7.4630000000000002e-02 6.8970000000000004e-02
    94 1  7.1587611837900003e+00 9.2717224699099994e+00 -1.4524782714600000e+00  -1.3954500000000000e-01 4.9334600000000001e-01 2.2004399999999999e-01
    95 1  5.0412547584500000e+00 9.1723233009000005e+00 8.4817007163600007e+00  2.8693900000000000e-01 -1.0457500000000000e-01 -2.5718999999999997e-01
    96 1  2.9049727101800000e+00 -5.7910657887399997e-01 7.0863029030100000e-01  -1.9666400000000001e-01 -3.1842100000000001e-01 -7.3200000000000001e-03
    97 1  9.9759137447400004e-01 3.2154206658000000e+00 -1.5879479883300001e+00  -3.3975999999999999e-02 1.4188899999999999e-01 3.4688999999999998e-02
    98 1  2.9344117096700000e+00 9.1780377687900003e+00 6.5495131261799999e+00  3.3598000000000003e-02 -3.5783599999999999e-01 2.0242599999999999e-01
    99 1  9.5710862380200001e-01 5.2372527054300004e+00 8.4608135386000001e+00  2.9382000000000003e-01 2.4868599999999999e-01 4.1721799999999998e-01
    100 1  4.9425297314699996e+00 -7.8435167138399997e-01 2.5766710316400001e+00  2.2782700000000000e-01 -3.1348100000000001e-01 -6.0581000000000003e-02
    101 1  8.9382169892499999e+00 -6.4166528892999997e-01 6.3924137168700002e+00  -8.7938000000000002e-02 -1.3377000000000000e-01 2.7888700000000000e-01
    102 1  3.0505349740400001e+00 1.1967964174400001e+00 6.5567468749500000e+00  -4.7390000000000002e-02 -1.9220000000000001e-03 2.5240000000000002e-03
    103 1  8.9390118842599993e+00 -6.9003433984600004e-01 2.4439266283599999e+00  -2.0391300000000001e-01 -1.5650500000000001e-01 -2.7531200000000000e-01
    104 1  3.0153289509399999e+00 9.3090265726200006e+00 -1.4551202928100000e+00  -8.1615999999999994e-02 -1.9300000000000001e-03 -1.7844599999999999e-01
    105 1  4.8790858927400000e+00 1.1758166084099999e+00 8.6118121442000000e+00  1.2005300000000001e-01 8.1048999999999996e-02 -6.8145999999999998e-02
    106 1  8.2853903511899996e-01 5.2772719820100003e+00 4.6123563325600001e+00  1.5418200000000001e-01 -1.4953200000000000e-01 -3.4177000000000002e-01
    107 1  8.9027693532400001e+00 9.2149846183099999e+00 4.5506328509799996e+00  -1.6030500000000000e-01 -6.8224000000000007e-02 -2.8584999999999999e-02
    108 1  9.7907451041299998e-01 7.2205357249100004e+00 2.6388684351900000e+00  3.1252300000000000e-01 9.0310000000000001e-02 -2.3259999999999999e-02
 Energy
    -5.0533311603999999e+02
 Feature   MD	Al-Ni_nodef
END_CFG

