BEGIN_CFG
 Size
    108
 Supercell
    1.1984152500000000e+01 0.0000000000000000e+00 0.0000000000000000e+00
    0.0000000000000000e+00 1.1984152500000000e+01 0.0000000000000000e+00
    0.0000000000000000e+00 0.0000000000000000e+00 1.1984152500000000e+01
 AtomData:  id type       cartes_x      cartes_y      cartes_z           fx          fy          fz
    1 0  8.9287581300000003e+00 5.3031397900000004e+00 4.4824664800000003e+00  -3.0430055900000003e-01 5.8747728499999996e-01 -5.9214627700000000e-01
    2 0  2.9857668799999999e+00 7.2490647900000003e+00 4.5780658100000000e+00  5.9965009000000002e-01 5.1193094299999997e-01 -1.0408662099999999e+00
    3 0  1.1014794100000000e+01 9.2779316299999994e+00 2.4049884600000002e+00  -2.0898587599999999e-01 -8.5605576500000002e-01 5.7164346099999996e-01
    4 0  6.8819175200000000e+00 1.3812355300000001e+00 2.5732314399999998e+00  -8.0914127399999994e-02 -5.1641221699999995e-01 -5.9469519999999998e-01
    5 0  1.1058994300000000e+01 -7.0253718799999998e-01 8.7162197700000004e+00  -7.4848597500000003e-01 5.5379997400000003e-01 5.6292306199999997e-01
    6 0  3.0061233800000000e+00 3.0942514800000001e+00 5.6824881500000002e-01  4.7268720600000001e-02 9.8634067700000005e-01 -4.2665428999999999e-01
    7 0  6.9360027600000000e+00 9.2727454300000005e+00 2.5300518699999999e+00  -4.2166128899999999e-01 -1.1320736300000001e+00 4.6402958999999999e-01
    8 0  1.0960635999999999e+01 3.2707875000000000e+00 8.5277624599999999e+00  2.9077808900000002e-01 -1.1209299600000000e+00 3.9540745900000002e-01
    9 0  5.0280892799999997e+00 9.2813379299999994e+00 8.7151356599999996e+00  -1.1411814800000000e+00 -5.9526184099999997e-02 -2.2775533100000001e-01
    10 0  4.9293410199999999e+00 1.4077449500000001e+00 4.6808946999999996e+00  1.1305589700000001e+00 -7.0610140799999999e-01 -3.8841034099999999e-01
    11 0  1.0919531200000000e+01 5.1504418100000002e+00 -1.3785139099999999e+00  -8.8085172000000003e-02 1.2921505600000001e+00 1.9502104300000000e-02
    12 0  6.9396587399999996e+00 9.0579301700000006e+00 -1.2631760999999999e+00  3.4886750300000002e-01 -9.3019643700000001e-02 3.8803965099999999e-01
    13 0  4.9967182200000000e+00 5.1635631999999996e+00 8.5530646600000004e+00  -5.9690977899999997e-01 3.3536859099999999e-01 1.6552868900000000e+00
    14 0  9.1145347399999999e+00 3.1439467400000001e+00 6.4944192999999997e+00  -2.8608554600000002e-01 -3.5903839799999998e-01 1.2535062499999999e-01
    15 0  1.1892460700000000e+00 1.2230115300000000e+00 4.5800541199999998e+00  -1.2450504099999999e+00 2.3590775800000000e-01 -5.4606293500000000e-02
    16 0  5.0743309400000003e+00 3.2223962899999998e+00 2.5379573799999999e+00  9.6441654399999993e-02 1.7232699100000000e+00 -4.7557171399999998e-01
    17 0  7.0213730099999996e+00 3.1992401199999998e+00 8.5155794000000000e+00  2.6514861999999998e-03 -6.6799219300000001e-01 6.4981156699999998e-01
    18 0  9.0465961200000002e+00 9.3687092599999993e+00 5.4951161800000003e-01  7.7077353200000004e-02 -1.0524828799999999e+00 -5.7112222899999998e-01
    19 0  1.0375719699999999e+00 9.1960604900000007e+00 8.5153464900000007e+00  1.1621117000000001e+00 2.6884947799999998e-01 1.4101603199999999e+00
    20 0  3.0865444800000001e+00 -8.1134751699999996e-01 4.7430186100000000e+00  2.2511953800000001e-01 -1.3507690999999999e+00 -9.6447683699999998e-01
    21 0  9.2100597799999995e-01 5.1067699400000004e+00 6.0203644400000000e-01  4.9106255700000001e-01 2.3051860499999999e-01 -2.9264141900000001e-01
    22 0  6.9486178100000000e+00 -7.3127351200000001e-01 6.0390397699999998e-01  -3.7755256700000001e-01 4.6715954300000001e-01 -1.3374884200000001e-01
    23 0  8.9932020900000005e+00 3.2075065299999999e+00 -1.4340368699999999e+00  -1.0995596900000000e+00 -7.7920440999999993e-02 -2.2335777900000001e-01
    24 0  2.9720086399999999e+00 1.2123572499999999e+00 2.5298397399999999e+00  6.5339263700000005e-01 -2.8868826500000000e-01 -8.6040499999999998e-01
    25 0  1.0891345100000001e+01 5.1624590299999999e+00 2.6645451400000000e+00  5.7070907000000004e-01 8.9303666199999998e-01 4.7128082299999999e-02
    26 0  1.1019403000000001e+01 9.1974285299999998e+00 6.4640392200000001e+00  -7.0575339100000001e-01 4.7750910699999999e-01 -5.3919605000000004e-01
    27 0  2.9437703700000002e+00 1.2849982700000000e+00 -1.4209942700000000e+00  -2.9765077099999998e-01 -4.0697665900000002e-01 -6.6040493899999997e-01
    28 0  8.9052879300000001e+00 1.4319204500000000e+00 4.4038991799999998e+00  1.9631336999999999e-01 -5.5210267899999999e-01 9.7148784399999999e-01
    29 0  1.0212992599999999e+00 7.2669881299999997e+00 6.5139830400000003e+00  1.4268454699999999e-01 5.8522801000000002e-01 -7.8793782800000001e-01
    30 0  2.9724133500000001e+00 3.2348031499999998e+00 4.5058186800000000e+00  -1.7293756299999999e-01 1.4997023700000001e+00 -6.6372153300000003e-01
    31 0  3.1146288900000001e+00 1.2054368900000001e+00 6.6813059700000004e+00  -3.2487702099999999e-01 2.3104363999999999e-01 1.5633194800000001e+00
    32 0  6.9609287100000001e+00 -6.7113133700000005e-01 4.5034308400000000e+00  3.9000384999999999e-01 -6.4437362899999995e-01 4.4964805699999999e-01
    33 0  7.1079994500000003e+00 5.2914649699999998e+00 6.3880814299999997e+00  -6.6684927699999996e-01 -9.4570696199999998e-02 -1.3179115500000000e-02
    34 0  9.2411760300000001e-01 5.3693663500000000e+00 8.4105918000000006e+00  1.2617454699999999e+00 -5.1874502600000005e-01 1.6763111700000000e+00
    35 0  8.8486850799999992e+00 1.3642454600000000e+00 5.7573692099999996e-01  -3.4664177200000001e-01 -5.1708997000000001e-01 -5.8667712599999999e-01
    36 0  1.1138484600000000e+00 -6.3281238200000001e-01 2.4115915800000001e+00  2.6810463299999998e-01 -1.2055457300000001e+00 -5.5012536899999998e-01
    37 0  8.9813295400000008e+00 7.3556646499999996e+00 6.4739312599999996e+00  -3.8305169200000000e-01 6.5778211799999997e-01 -3.4331195700000000e-01
    38 0  1.0772909100000000e+01 3.3340636300000002e+00 6.3107294300000005e-01  1.0109244399999999e+00 -5.8278148900000004e-01 -4.4200534299999999e-01
    39 0  8.8628632700000001e+00 3.4242599399999998e+00 2.5198203499999998e+00  -1.1509596600000001e+00 3.8450853000000002e-01 -2.5905380000000000e-01
    40 0  4.9910711200000000e+00 7.2830837800000001e+00 6.6640206400000004e+00  -1.6243899500000001e-03 7.0502502000000000e-01 -8.9740815100000004e-01
    41 0  2.8379408700000002e+00 7.1695834100000004e+00 7.0352753000000001e-01  1.0928551500000001e+00 4.9483572700000000e-01 -5.8490889700000004e-01
    42 0  1.1036986100000000e+01 7.3203018300000000e+00 8.6173613499999995e+00  -1.1351942799999999e+00 3.1767372300000002e-01 1.0674343500000001e+00
    43 0  2.9603809600000002e+00 5.3451250899999998e+00 6.5236991399999997e+00  1.6305873900000001e-01 -5.6875875600000003e-01 9.8548075200000002e-02
    44 0  1.1017340799999999e+01 1.3780780699999999e+00 2.6410518900000000e+00  3.8736107600000003e-01 4.9372943200000002e-01 -1.2724575399999999e-01
    45 0  4.9420805500000000e+00 3.2925402600000000e+00 6.5735410600000002e+00  4.6326917200000001e-01 -1.0300141100000000e-01 8.3087642099999998e-02
    46 0  5.0304844299999996e+00 -8.2097348100000000e-01 -1.3821015600000000e+00  -5.9583183799999995e-01 6.9343657299999995e-01 1.1178091499999999e-01
    47 0  1.0693204300000001e+00 -6.8279361599999999e-01 6.6367586599999999e+00  -8.1601184500000007e-02 -7.9219148700000006e-02 3.9092160599999998e-01
    48 0  5.1069724000000001e+00 -8.5559865800000001e-01 6.6142205599999997e+00  4.5328059199999998e-01 -3.7578719099999998e-02 7.7349403299999997e-01
    49 0  9.0047750999999998e-01 7.2795051099999997e+00 2.6436307200000000e+00  -9.5268484899999999e-03 1.8728762700000001e-01 2.2040061599999999e-01
    50 0  9.8430810999999996e-01 3.2362392299999998e+00 6.4036734400000004e+00  -4.4030594499999998e-01 -1.3201620600000000e-01 5.2370396200000002e-01
    51 0  1.0963210200000001e+01 -7.8927508499999999e-01 4.4196040200000004e+00  -5.7392759999999998e-01 -3.9229443699999998e-02 6.8269906100000000e-01
    52 0  1.1002253700000001e+01 5.3224239700000000e+00 6.5050835200000003e+00  -3.7469643600000002e-01 -5.1473210700000001e-02 -8.2410420500000003e-01
    53 0  7.0044009899999997e+00 7.4982129999999998e+00 8.5570278799999997e+00  1.0052371700000000e+00 -7.5530451700000001e-01 3.1607505000000002e-01
    54 0  1.0898639800000000e+01 -5.7396719200000001e-01 6.6811169900000000e-01  5.5661026000000002e-01 9.9181143299999996e-02 -1.4585481300000001e+00
    55 1  6.8850133099999997e+00 3.2319562099999999e+00 5.0665209400000000e-01  2.4141566600000000e-01 7.9977178199999999e-03 2.6816920500000002e-01
    56 1  5.0961537600000000e+00 1.3208785100000000e+00 8.4632988200000003e+00  -1.3392422200000001e-01 -8.1764532000000001e-02 1.0039226100000000e-02
    57 1  8.9548346199999997e+00 -5.7077750400000005e-01 2.5218078700000000e+00  -2.1609728700000001e-02 6.4836854700000002e-02 -1.0586307500000000e-01
    58 1  8.9275994700000005e+00 5.2267240299999997e+00 4.9405565699999998e-01  1.1390745400000001e-01 -1.9036220200000001e-01 6.0414591699999999e-02
    59 1  1.1011910700000000e+01 3.2827078699999999e+00 4.5397019800000002e+00  -4.5108718300000000e-01 2.5931575799999999e-02 9.9143172000000002e-02
    60 1  4.9856701100000000e+00 5.2265108800000002e+00 4.5274380799999996e+00  -2.7268739800000003e-01 1.0208195600000001e-02 3.2795542900000002e-01
    61 1  6.8765465199999998e+00 1.2926877200000000e+00 -1.3870885900000001e+00  2.9463123499999999e-01 -1.0181048400000001e-01 -1.1030548300000000e-01
    62 1  4.9146408499999996e+00 9.2997548200000004e+00 6.7833118500000000e-01  3.3719683900000003e-01 -1.5378885700000001e-02 -2.2549608099999999e-01
    63 1  4.9606978699999997e+00 7.2115188999999997e+00 -1.5018277700000000e+00  2.2293013300000000e-01 9.4203784299999996e-02 -4.6254393599999999e-02
    64 1  1.1031837200000000e+01 1.2550684700000001e+00 6.4330266299999996e+00  1.2565628100000001e-01 -6.7526731600000001e-02 5.1245912900000003e-02
    65 1  1.1003007600000000e+01 7.2924712400000002e+00 4.9971144400000000e-01  -8.6236093799999997e-02 -2.0171932600000000e-01 3.5862717100000002e-01
    66 1  9.0566201799999995e+00 9.2045101200000001e+00 4.4195093400000003e+00  -3.9790604500000000e-02 1.7554775900000000e-01 1.6662660300000001e-01
    67 1  7.1143130499999998e+00 -7.8060884699999999e-01 8.6763019700000008e+00  -4.0051241100000001e-01 -2.1227576200000001e-01 -5.6156760399999998e-02
    68 1  2.9921226200000000e+00 9.2824819900000008e+00 2.4543163799999999e+00  -2.3661583000000000e-01 -1.6452899800000001e-01 2.8431714000000002e-01
    69 1  6.8907135799999999e+00 5.3230936700000004e+00 -1.4494882300000000e+00  -1.9362243000000001e-02 -1.4648229099999999e-01 -1.2008856499999999e-01
    70 1  8.9362047899999997e+00 5.3038277699999998e+00 8.4115282199999992e+00  1.4739069099999999e-01 -7.8019491600000004e-02 -1.2619401599999999e-01
    71 1  7.0508095600000003e+00 1.3164776000000000e+00 6.5156528800000002e+00  -5.8311867900000001e-02 -2.4586923699999999e-02 -9.7273491599999998e-02
    72 1  7.0751853899999997e+00 3.3081869099999999e+00 4.5358622100000003e+00  6.3573274200000002e-02 -4.0715251600000002e-02 -7.5413108899999998e-02
    73 1  9.4108809500000001e-01 7.1558390400000000e+00 -1.4079440000000001e+00  -7.0565793399999993e-02 -1.9392458900000001e-01 -1.2680633499999999e-01
    74 1  4.8602013900000003e+00 3.2779393600000000e+00 -1.4369088500000000e+00  7.7266132099999996e-02 8.8536318199999992e-03 -7.5949681599999999e-02
    75 1  9.5593904500000004e-01 1.3416242400000000e+00 8.5255570400000007e+00  3.8436225300000001e-02 -6.9529102999999995e-02 -1.5887094099999999e-01
    76 1  4.9615411600000003e+00 1.0878747400000000e+00 4.1298945300000001e-01  -1.8504031900000001e-01 1.7399029499999999e-01 2.7555889600000000e-01
    77 1  2.8963673200000000e+00 5.2816624100000000e+00 2.6493349799999999e+00  1.2395008600000000e-01 4.0258539000000003e-02 -2.3581211699999999e-01
    78 1  3.0603832400000002e+00 5.2497256999999999e+00 -1.4242516700000001e+00  -9.9690122300000003e-02 -3.9071106500000001e-02 1.2786506800000000e-01
    79 1  2.9008489100000001e+00 7.3110233400000002e+00 8.6826226599999998e+00  5.6656188699999999e-02 -2.2417636399999999e-01 -4.2148848799999999e-01
    80 1  9.0332527700000007e+00 -7.3435213700000002e-01 6.5190843999999997e+00  1.0573589100000000e-01 -3.3682610600000003e-02 -1.3664861000000000e-01
    81 1  4.8644918400000003e+00 9.2032622899999996e+00 4.5986712499999998e+00  1.5715926799999999e-01 4.3635354400000000e-02 5.7155033100000002e-02
    82 1  4.9635342099999997e+00 -7.6247409200000005e-01 2.5761924000000000e+00  2.2591419200000001e-01 2.3799140199999999e-01 2.1948168800000001e-01
    83 1  1.1009637200000000e+01 1.3511347499999999e+00 -1.3549134599999999e+00  -3.3296808600000000e-01 3.9391446099999998e-02 1.6445122800000000e-02
    84 1  3.0930651800000000e+00 -7.1583292499999995e-01 8.6600239600000002e+00  6.3882376300000002e-02 -7.3233477099999998e-03 -7.6795711700000005e-02
    85 1  9.4083098899999995e-01 9.2371522000000006e+00 5.9314523600000002e-01  1.1340137700000000e-01 8.4238427300000002e-02 3.1128338300000002e-01
    86 1  6.9671579399999999e+00 7.2702282699999996e+00 6.7652123700000000e-01  -1.2707034600000000e-02 9.1668800800000005e-02 -8.2421884099999995e-02
    87 1  9.9097755399999998e-01 3.3417100300000002e+00 -1.4698234699999999e+00  -1.5677276500000001e-01 1.4770864400000000e-01 1.2229717499999999e-01
    88 1  2.9454956900000000e+00 9.1164227100000002e+00 6.6910445500000000e+00  1.4189129900000000e-01 2.1553942100000001e-01 -1.4323900500000000e-01
    89 1  9.3302449499999995e-01 1.3817704000000000e+00 6.4945459299999997e-01  -1.0661266100000000e-02 -2.1014036300000000e-01 7.1165619799999996e-02
    90 1  2.9516404500000002e+00 -7.7696063299999996e-01 4.3817864000000001e-01  4.8899132800000002e-02 1.5817207000000000e-01 1.4370799700000000e-01
    91 1  9.0578269500000008e+00 7.3963623399999996e+00 -1.4820747400000001e+00  -9.9598076999999993e-02 -1.7212929299999999e-02 6.6063026999999996e-02
    92 1  7.0188187199999996e+00 7.2130248300000002e+00 4.5864400200000004e+00  5.8959682100000001e-02 -6.9631697899999997e-02 4.5073985099999998e-02
    93 1  4.8787689700000003e+00 7.2076912399999999e+00 2.6908590700000001e+00  7.9441611699999998e-02 1.4220644199999999e-01 -1.8035449400000000e-01
    94 1  5.0458435100000001e+00 5.2638928500000004e+00 4.7924914600000001e-01  -8.8829638599999997e-02 -1.1304016100000000e-01 1.4598788600000001e-01
    95 1  9.0852626199999997e-01 3.2901741100000002e+00 2.6349131600000000e+00  1.4829526600000001e-01 -2.5069256000000001e-01 -3.2869648200000001e-01
    96 1  8.8882670099999999e+00 7.2709643100000001e+00 2.4544281899999998e+00  1.1597373699999999e-01 7.4845768300000004e-02 5.4427030899999999e-02
    97 1  9.6402544700000004e-01 5.3069293100000001e+00 4.4145992600000001e+00  1.2575175799999999e-01 2.1014073400000000e-01 5.5600888299999995e-01
    98 1  9.2578895200000000e-01 9.3844151999999994e+00 4.4884479500000003e+00  -5.6120381400000001e-03 -2.1711859000000000e-02 8.3095465499999997e-03
    99 1  2.9518734700000002e+00 9.2095763200000000e+00 -1.3758375700000001e+00  1.1228710200000000e-01 1.1196045300000000e-01 -1.1594415299999999e-01
    100 1  6.9059088500000003e+00 5.2599440800000004e+00 2.5885946600000000e+00  1.3344437700000000e-01 -3.4028236400000002e-02 -1.0599936300000000e-01
    101 1  7.0380153900000000e+00 9.4037660200000008e+00 6.4003601300000001e+00  -9.8519114800000002e-02 -2.6026463799999999e-01 2.3780308800000000e-01
    102 1  1.0121631499999999e+00 -7.9364659999999998e-01 -1.3229932499999999e+00  -7.6615135400000006e-02 7.0385788399999996e-02 -1.5459143800000000e-01
    103 1  9.0749047100000002e+00 9.1847274500000005e+00 8.5211589599999993e+00  6.1636479600000002e-02 -1.0261690900000000e-02 -1.8538171000000001e-01
    104 1  1.0933333100000000e+01 7.3164792600000004e+00 4.4942171599999998e+00  -3.2464780300000003e-02 -2.8778803800000002e-01 1.4996203899999999e-01
    105 1  1.1123522200000000e+01 9.2071041499999993e+00 -1.3213003600000000e+00  -1.8439553800000000e-01 2.1392257800000000e-01 -3.5881165999999998e-01
    106 1  8.9912665799999996e+00 1.2086946199999999e+00 8.6015659600000003e+00  7.8083780800000002e-02 2.7872913599999999e-01 -1.1619667300000001e-02
    107 1  2.7730037400000001e+00 3.3556511499999999e+00 8.4839912200000001e+00  2.9472675300000001e-01 8.9926432700000003e-02 -3.3831515000000001e-01
    108 1  8.9443412999999996e+00 -8.5522060899999996e-01 -1.4206585300000001e+00  3.9147319999999999e-02 1.2383293100000000e-02 3.3174922699999998e-01
 Energy
    -5.0136803347900002e+02
 Feature   MD	Al-Ni_nodef
END_CFG

BEGIN_CFG
 Size
    108
 Supercell
    1.1984152500000000e+01 0.0000000000000000e+00 0.0000000000000000e+00
    0.0000000000000000e+00 1.1984152500000000e+01 0.0000000000000000e+00
    0.0000000000000000e+00 0.0000000000000000e+00 1.1984152500000000e+01
 AtomData:  id type       cartes_x      cartes_y      cartes_z           fx          fy          fz
    1 0  9.1699351399999995e-01 1.3512793299999999e+00 8.6580681399999992e+00  4.4255569600000003e-02 -9.1911632799999998e-01 -9.8097804899999996e-01
    2 0  8.9195236500000004e+00 -7.2898440300000000e-01 -1.3754753300000000e+00  2.2158606900000000e-01 -3.8806872399999998e-01 9.1932643700000005e-01
    3 0  9.5967601999999996e-01 3.2315209800000000e+00 6.6254710200000000e+00  -3.9358449800000000e-01 -7.1014033600000004e-01 -6.6350665900000005e-01
    4 0  4.9829193199999997e+00 5.2304322399999998e+00 8.5684467099999999e+00  5.8616234099999998e-02 -5.0004110300000004e-01 1.0327721500000000e+00
    5 0  7.0211614500000001e+00 -6.6898599299999995e-01 4.5071756599999997e+00  4.4611627500000001e-01 -1.4998904599999999e-01 3.4982240199999998e-01
    6 0  9.6793942099999997e-01 -6.8214115500000005e-01 6.6919833000000004e+00  -3.2966157899999998e-01 -8.6960495299999996e-01 1.0771741899999999e-01
    7 0  4.9197585699999999e+00 1.2168924100000000e+00 4.4383862499999999e-01  7.4584986900000005e-01 6.3844864899999998e-01 1.0850139300000000e-01
    8 0  3.1246372199999999e+00 1.2986995699999999e+00 -1.4742738300000000e+00  4.6869664599999999e-01 -3.2408372699999999e-01 -3.4282461600000003e-01
    9 0  7.0669075599999998e+00 5.2041654199999998e+00 2.5210302499999999e+00  -6.2025729699999999e-01 -9.9644398800000006e-02 1.6363396699999999e+00
    10 0  9.2572370000000004e-01 7.2156576499999998e+00 6.7122997599999996e+00  9.9350389700000000e-02 1.7537959599999999e+00 -7.8732315100000005e-02
    11 0  3.0119192400000001e+00 3.2772014399999998e+00 4.8922539700000001e-01  3.1026509699999999e-01 8.6953262499999995e-01 5.6566422999999999e-01
    12 0  8.9155856500000006e+00 9.3884083300000007e+00 8.6172626900000004e+00  9.0218415600000001e-01 -4.0188194999999999e-01 -9.7383719999999996e-01
    13 0  1.0945939100000000e+01 5.2303410299999999e+00 6.5921470299999996e+00  -1.0913067700000001e+00 4.8768626199999998e-01 -1.2365459600000001e-01
    14 0  1.0939021300000000e+01 7.2385318800000000e+00 4.7524055100000000e+00  -9.0777174999999999e-01 1.4200709800000000e+00 -8.0478013900000001e-01
    15 0  7.0119972800000001e+00 3.1670579900000000e+00 8.4776653999999994e+00  -3.4651830200000000e-01 3.0738946600000000e-01 2.9537134900000001e-01
    16 0  6.8758679100000002e+00 5.2307011100000000e+00 6.5103359200000002e+00  5.8848932399999998e-01 -3.5074668800000000e-02 -1.2659232000000000e+00
    17 0  6.9758382900000004e+00 7.2027350600000002e+00 8.6430828500000008e+00  4.6686473999999999e-02 3.8613255600000000e-02 -2.0393880800000000e-01
    18 0  6.9556003300000002e+00 7.1529651000000003e+00 6.6300322400000000e-01  -3.4680088200000000e-03 1.7326087299999999e+00 -1.4940755999999999e-01
    19 0  8.4080242100000002e-01 5.2190259799999996e+00 8.5725561999999993e+00  3.3419327300000001e-01 7.4354155099999997e-01 8.1072165500000004e-01
    20 0  3.0119603700000002e+00 7.1516143100000003e+00 8.6411176300000001e+00  -1.4287237799999999e-01 8.1213974700000002e-01 6.5460822500000004e-01
    21 0  2.8394339099999999e+00 3.1841271600000001e+00 4.5955442599999996e+00  1.5626199999999999e+00 3.9708772900000000e-01 -2.2906520200000000e-01
    22 0  5.0119910100000000e+00 5.3365981600000003e+00 5.8414284400000005e-01  -8.4311256899999998e-01 -3.3983502199999999e-01 -2.0137120500000000e-01
    23 0  4.9822040599999999e+00 -5.3882765600000004e-01 2.6288682300000001e+00  4.2173309700000000e-01 1.8397367100000001e-01 3.0243381999999999e-02
    24 0  1.0909847900000001e+01 1.1707207500000001e+00 -1.2872456600000000e+00  -1.3202627400000000e-01 -3.1611423500000002e-01 3.4629123299999998e-01
    25 0  9.0514027499999994e+00 3.3112242400000000e+00 6.4857510500000002e+00  -3.0834985700000000e-01 -3.2545962000000001e-01 -6.3961595900000001e-01
    26 0  8.9941462500000000e+00 1.2978362100000000e+00 8.6776049799999999e+00  7.6806372400000003e-02 -7.8235545399999995e-01 -1.0599789200000000e+00
    27 0  2.9312155299999998e+00 5.2465249399999996e+00 6.5194191000000004e+00  8.5654543400000005e-01 3.5768377200000000e-02 -5.5892706299999995e-01
    28 0  2.9626670700000002e+00 1.3383421099999999e+00 2.6911779800000000e+00  6.9542930500000000e-01 2.3830676600000000e-01 -5.0664647200000001e-01
    29 0  9.0661659300000004e+00 3.3603315899999999e+00 -1.3865297700000001e+00  -9.4824790500000000e-01 1.5128432800000000e-01 1.6450656200000000e-01
    30 0  9.0437006300000000e+00 1.1816037399999999e+00 4.5612571700000002e+00  4.7613513899999999e-01 -2.5251739200000001e-01 -1.0894167400000000e-01
    31 0  8.8607399099999995e+00 7.2141465499999997e+00 -1.5097777999999999e+00  1.1730058800000001e+00 2.4022241499999999e-01 3.9958194600000002e-01
    32 0  9.0282584899999996e-01 5.3735340899999997e+00 5.0036124699999995e-01  5.7543903200000002e-01 6.1937410000000004e-01 4.7142655999999999e-01
    33 0  3.0724116900000000e+00 -7.7339369800000002e-01 4.6873901000000000e+00  4.5148626800000001e-02 3.8904874299999997e-01 1.1517047400000000e+00
    34 0  3.0774121800000001e+00 3.1995762700000001e+00 8.4693094999999996e+00  4.3395866500000002e-01 6.3480385400000006e-02 -1.1795251200000001e-02
    35 0  9.1070164800000004e+00 3.2527221499999999e+00 2.5869235399999999e+00  -6.2246970499999998e-01 -8.0506474699999997e-01 4.4257425800000000e-01
    36 0  6.9017488199999999e+00 -6.6068488199999997e-01 8.4231354700000001e+00  1.7658683100000000e-01 -3.1346340499999997e-01 -3.6927661200000000e-01
    37 0  9.3787195800000001e-01 3.2867333099999998e+00 -1.4708483800000001e+00  3.2484280700000001e-01 6.1684430999999995e-01 4.5738846599999999e-01
    38 0  1.0734391100000000e+00 -8.0581895699999995e-01 2.4479236800000002e+00  -1.4515373899999999e+00 -6.0225309299999996e-01 -1.3436500200000001e-01
    39 0  1.0858843300000001e+00 1.2706574399999999e+00 5.9815820500000005e-01  -5.8538588899999999e-01 1.3497088400000001e-01 9.0928329900000004e-01
    40 0  6.7754254899999999e+00 -7.0107280699999996e-01 5.3632654499999999e-01  1.4877311499999999e+00 -2.2430687799999999e-01 -5.6699252100000000e-02
    41 0  5.0455876100000001e+00 1.1983490299999999e+00 8.5185445600000005e+00  -3.8959028499999998e-01 -1.6761008199999999e-01 -5.4988655900000005e-01
    42 0  1.0184782100000001e+00 7.3570752199999996e+00 -1.4329364200000001e+00  -5.3865026999999999e-01 9.1110378999999997e-01 3.3099912900000000e-01
    43 0  9.8556899200000003e-01 5.2565326700000004e+00 4.5947774800000003e+00  1.9258411700000000e-01 2.4362830999999999e-01 -1.3066624200000001e+00
    44 0  1.2084443300000001e+00 -4.5946249300000003e-01 -1.3428562700000000e+00  -3.2467304600000002e-01 -2.7071700500000002e+00 -2.0493671399999999e-01
    45 0  1.1046345199999999e+01 3.2749217900000001e+00 6.3560058699999999e-01  -9.6013243700000001e-02 -4.8461715999999999e-01 2.1840418000000000e-01
    46 0  3.0475274899999998e+00 9.3814944899999997e+00 2.7117225899999999e+00  -9.3199247500000004e-01 -1.7147931300000001e+00 -6.4235458599999995e-01
    47 0  5.0551920099999998e+00 9.2607365399999999e+00 4.4867208300000003e+00  8.0997687500000004e-01 -9.1545692099999998e-01 5.7802104600000004e-01
    48 0  4.9335615800000001e+00 7.2440954499999997e+00 6.5765308300000003e+00  1.6163777300000001e-02 3.9202413800000002e-01 -1.2025147800000000e+00
    49 0  1.0985719300000000e+01 3.3131890400000001e+00 8.6072638000000001e+00  -9.4412241600000002e-01 -7.4654016000000002e-03 -9.5654777799999993e-02
    50 0  4.8691071900000003e+00 9.2714335999999999e+00 6.5733463100000000e-01  -1.6632362700000000e-01 -6.9775744500000003e-01 -8.3225269700000004e-01
    51 0  9.0690168599999998e-01 1.2368460999999999e+00 4.4643306799999998e+00  -1.2995096900000001e+00 1.5774640999999999e-02 3.2811173399999999e-01
    52 0  1.0884770000000000e+01 5.3883774700000000e+00 2.4635409600000000e+00  1.6670087700000000e-01 7.9556302099999998e-01 6.7249238200000006e-01
    53 0  8.8870542500000003e+00 5.3118479000000001e+00 5.0473945099999995e-01  4.2179889599999998e-01 7.3433433800000003e-02 -2.0042360800000000e-01
    54 0  4.9679097299999997e+00 9.2039852900000003e+00 8.5408495700000007e+00  -4.4166484400000000e-01 9.2241464100000004e-01 4.9849588299999997e-01
    55 1  1.0819803800000001e+01 7.3130989900000003e+00 8.6191166900000002e+00  2.7935013100000000e-01 5.0360888399999998e-02 -1.5782527900000001e-01
    56 1  3.0140771200000001e+00 5.1671273099999997e+00 -1.4903648800000000e+00  -3.2631652500000002e-01 -4.7121896099999998e-02 -5.3702977399999997e-02
    57 1  8.8439850300000007e+00 9.2708180599999999e+00 4.5523110899999999e+00  8.0325835299999995e-02 -1.0808231000000000e-02 5.4142962300000000e-02
    58 1  1.1114402500000001e+01 9.2367979499999997e+00 2.4899917100000000e+00  -5.9752943099999997e-02 1.6634926799999999e-01 5.3760273999999997e-02
    59 1  4.8852097299999997e+00 7.1895226200000000e+00 -1.3110208999999999e+00  1.4241186400000000e-01 5.0121007099999997e-02 -1.3057533299999999e-01
    60 1  6.8960520599999997e+00 3.3978623699999999e+00 6.0023653200000004e-01  2.6367859500000002e-01 6.9139603199999997e-02 1.5429246099999999e-01
    61 1  4.8539510000000003e+00 5.2202773300000000e+00 4.3870917100000000e+00  1.9502149599999999e-01 1.2023628999999999e-02 4.0103472600000001e-01
    62 1  1.0952270499999999e+01 -6.9718949900000005e-01 8.4757705500000000e+00  -2.1948721700000000e-02 1.7430033700000000e-01 3.8504758100000003e-01
    63 1  9.3633250499999998e-01 9.1103498599999995e+00 4.6316517399999997e+00  2.5185372200000000e-02 1.5428417999999999e-01 -5.3430785400000000e-02
    64 1  4.8740344899999997e+00 3.2870125899999998e+00 2.5234858700000000e+00  -1.3844826299999999e-01 -1.0798674600000000e-02 -1.7787492599999999e-01
    65 1  3.0556475299999999e+00 1.1440507099999999e+00 6.4960072400000000e+00  -2.8512198200000000e-01 2.1923908900000000e-01 9.4134554999999995e-02
    66 1  5.1343090699999996e+00 -7.3424165799999996e-01 6.4341715600000002e+00  -1.7380742099999999e-02 -5.1760274199999998e-02 1.0955441700000000e-01
    67 1  2.9640949000000001e+00 7.1069505700000004e+00 6.6087708899999997e-01  -5.9694240400000001e-02 1.9405479900000000e-01 -2.2976615299999999e-02
    68 1  1.0936852800000000e+01 5.4196485599999997e+00 -1.5113999899999999e+00  1.0227245700000000e-01 -4.3308938100000000e-01 1.5404173600000001e-01
    69 1  8.8746255699999992e+00 5.1231669499999999e+00 8.4036425900000005e+00  -2.5543488900000001e-02 -7.5029538399999998e-02 -6.1553938300000000e-02
    70 1  2.9874782700000000e+00 7.2206482999999997e+00 4.6449292099999999e+00  -7.5370867600000002e-02 -3.9071557999999999e-02 1.4229900600000001e-01
    71 1  1.0856536999999999e+01 7.3561528999999997e+00 4.7104932599999999e-01  6.9985544299999994e-02 -1.8985110499999999e-01 6.8509990000000007e-02
    72 1  1.1183936100000000e+01 3.3647520399999999e+00 4.4736868400000001e+00  -1.9172117599999999e-01 4.7149692100000001e-02 2.7617123599999999e-01
    73 1  6.9911269599999999e+00 9.3208783700000009e+00 2.4530374799999999e+00  -2.5261918300000002e-01 1.9645499899999999e-01 7.0125455599999997e-02
    74 1  6.9959031700000001e+00 9.2125533500000003e+00 6.6943953699999996e+00  -1.3593257800000000e-01 2.1595196000000001e-02 4.1983758300000000e-02
    75 1  1.0848608799999999e+01 9.3411791599999994e+00 6.6021820199999999e+00  1.4143629899999999e-01 -1.9315594699999999e-01 -5.7622781599999999e-02
    76 1  8.9266827600000003e+00 7.2631273099999998e+00 2.5528425200000000e+00  8.8971311499999994e-03 -1.6724500100000000e-01 -1.3258367600000001e-01
    77 1  1.0631645100000000e+00 9.2237669600000007e+00 5.0945063999999995e-01  -1.3941632100000001e-01 4.4474564600000002e-02 1.4711000799999999e-01
    78 1  7.0597137400000003e+00 7.1689454200000000e+00 4.4845706300000003e+00  -2.3700119100000000e-01 6.2799647799999997e-02 9.2032458400000003e-02
    79 1  8.9925910200000008e+00 7.2772563100000003e+00 6.6331055699999997e+00  -9.7865560599999998e-02 -8.5737815800000002e-03 -6.1598194000000002e-02
    80 1  6.9146736999999998e+00 5.1357623600000002e+00 -1.5045555399999999e+00  2.6549404700000001e-01 3.2641979799999998e-01 2.4304507600000001e-02
    81 1  2.9333204300000002e+00 5.2089524200000001e+00 2.6617861100000000e+00  -1.1032330600000000e-01 -1.7553949999999999e-02 -2.2873222800000001e-01
    82 1  7.2174229900000002e+00 1.3040816500000001e+00 6.5265937400000000e+00  -2.1348359800000001e-02 1.2120079100000000e-02 2.3737367100000001e-01
    83 1  4.9936840599999996e+00 1.3841781500000001e+00 4.5778957399999998e+00  -1.6579851800000001e-01 -3.5060201099999999e-01 -3.6675267800000000e-01
    84 1  2.8998223400000001e+00 9.1861771999999995e+00 6.6165161899999996e+00  1.7195546900000000e-01 -1.0466473300000000e-01 6.8074944999999998e-02
    85 1  4.9221925000000004e+00 -7.7280329400000003e-01 -1.4661135300000001e+00  1.4355828400000001e-01 2.1149894999999999e-01 -5.7795358099999999e-02