BEGIN_CFG
 Size
    27
 Supercell
    5.5937599999999996e+00 0.0000000000000000e+00 0.0000000000000000e+00
    -1.6446600000000000e-01 5.6391970000000002e+00 0.0000000000000000e+00
    -1.5702149999999999e+00 1.1223300000000000e-01 6.7114089999999997e+00
 AtomData:  id type       cartes_x      cartes_y      cartes_z           fx          fy          fz
    1 0  -2.4597600000000000e-01 4.4574460000000000e+00 2.6170909999999998e+00  0.0000000000000000e+00 0.0000000000000000e+00 0.0000000000000000e+00
    2 0  -1.7641799999999999e-01 4.1860619999999997e+00 4.3450240000000004e+00  0.0000000000000000e+00 0.0000000000000000e+00 0.0000000000000000e+00
    3 0  4.7248899999999999e-01 3.8344179999999999e+00 1.0035449999999999e+00  0.0000000000000000e+00 0.0000000000000000e+00 0.0000000000000000e+00
    4 0  1.5545730000000000e+00 2.6598780000000000e+00 1.8412450000000000e+00  0.0000000000000000e+00 0.0000000000000000e+00 0.0000000000000000e+00
    5 0  4.8783300000000002e-01 1.3553710000000001e+00 4.2953120000000000e+00  0.0000000000000000e+00 0.0000000000000000e+00 0.0000000000000000e+00
    6 0  4.8483900000000002e-01 5.5288320000000004e+00 5.2848009999999999e+00  0.0000000000000000e+00 0.0000000000000000e+00 0.0000000000000000e+00
    7 0  4.6469100000000002e-01 2.8327819999999999e+00 5.2669269999999999e+00  0.0000000000000000e+00 0.0000000000000000e+00 0.0000000000000000e+00
    8 0  8.8072399999999995e-01 5.4236399999999998e+00 3.6006589999999998e+00  0.0000000000000000e+00 0.0000000000000000e+00 0.0000000000000000e+00
    9 0  5.7959600000000000e-01 1.3520760000000001e+00 2.5614859999999999e+00  0.0000000000000000e+00 0.0000000000000000e+00 0.0000000000000000e+00
    10 0  -5.2273400000000003e-01 1.3836139999999999e+00 5.8919600000000001e+00  0.0000000000000000e+00 0.0000000000000000e+00 0.0000000000000000e+00
    11 0  1.3513530000000000e+00 1.1105060000000000e+00 1.0276400000000001e+00  0.0000000000000000e+00 0.0000000000000000e+00 0.0000000000000000e+00
    12 0  1.0779449999999999e+00 5.2946030000000004e+00 7.0211999999999997e-02  0.0000000000000000e+00 0.0000000000000000e+00 0.0000000000000000e+00
    13 0  1.6470980000000000e+00 2.6049730000000002e+00 1.9212099999999999e-01  0.0000000000000000e+00 0.0000000000000000e+00 0.0000000000000000e+00
    14 0  2.3269280000000001e+00 5.4422569999999997e+00 1.3672740000000001e+00  0.0000000000000000e+00 0.0000000000000000e+00 0.0000000000000000e+00
    15 0  3.3716819999999998e+00 4.5854109999999997e+00 6.5957020000000002e+00  0.0000000000000000e+00 0.0000000000000000e+00 0.0000000000000000e+00
    16 0  4.8237649999999999e+00 2.7402489999999999e+00 2.6056499999999999e-01  0.0000000000000000e+00 0.0000000000000000e+00 0.0000000000000000e+00
    17 0  3.8994179999999998e+00 5.6383380000000001e+00 6.8364499999999995e-01  0.0000000000000000e+00 0.0000000000000000e+00 0.0000000000000000e+00
    18 0  3.2682820000000001e+00 1.7053540000000000e+00 5.5560960000000001e+00  0.0000000000000000e+00 0.0000000000000000e+00 0.0000000000000000e+00
    19 0  2.3052229999999998e+00 5.7149979999999996e+00 5.7482620000000004e+00  0.0000000000000000e+00 0.0000000000000000e+00 0.0000000000000000e+00
    20 0  2.4313110000000000e+00 4.9750560000000004e+00 3.0626869999999999e+00  0.0000000000000000e+00 0.0000000000000000e+00 0.0000000000000000e+00
    21 0  4.7911720000000004e+00 1.3976590000000000e+00 1.4456970000000000e+00  0.0000000000000000e+00 0.0000000000000000e+00 0.0000000000000000e+00
    22 0  3.9049930000000002e+00 4.1071830000000000e+00 3.4833840000000000e+00  0.0000000000000000e+00 0.0000000000000000e+00 0.0000000000000000e+00
    23 0  3.5391180000000002e+00 2.4089740000000002e+00 3.9831140000000000e+00  0.0000000000000000e+00 0.0000000000000000e+00 0.0000000000000000e+00
    24 0  4.5766369999999998e+00 1.4275510000000000e+00 3.1254000000000000e+00  0.0000000000000000e+00 0.0000000000000000e+00 0.0000000000000000e+00
    25 0  2.4123640000000002e+00 3.2655810000000001e+00 3.1571039999999999e+00  0.0000000000000000e+00 0.0000000000000000e+00 0.0000000000000000e+00
    26 0  1.9554849999999999e+00 2.3949600000000002e+00 4.6017310000000000e+00  0.0000000000000000e+00 0.0000000000000000e+00 0.0000000000000000e+00
    27 0  3.8587729999999998e+00 5.5759309999999997e+00 2.3646280000000002e+00  0.0000000000000000e+00 0.0000000000000000e+00 0.0000000000000000e+00
 Energy
    0.0000000000000000e+00
 PlusStress:  xx          yy          zz          yz          xz          xy
     -0.0000000000000000e+00 -0.0000000000000000e+00 -0.0000000000000000e+00 -0.0000000000000000e+00 -0.0000000000000000e+00 -0.0000000000000000e+00
END_CFG

BEGIN_CFG
 Size
    27
 Supercell
    8.0901999999999994e+00 0.0000000000000000e+00 0.0000000000000000e+00
    9.8488999999999993e-02 6.1097979999999996e+00 0.0000000000000000e+00
    -8.7580499999999994e-01 -2.6475700000000002e-01 4.1816649999999997e+00
 AtomData:  id type       cartes_x      cartes_y      cartes_z           fx          fy          fz
    1 0  4.1658400000000001e-01 3.6388389999999999e+00 4.3334699999999998e-01  0.0000000000000000e+00 0.0000000000000000e+00 0.0000000000000000e+00
    2 0  -9.3082999999999999e-02 1.3707600000000000e+00 2.5613700000000001e+00  0.0000000000000000e+00 0.0000000000000000e+00 0.0000000000000000e+00
    3 0  2.5534699999999999e-01 5.3619610000000000e+00 2.0670900000000000e-01  0.0000000000000000e+00 0.0000000000000000e+00 0.0000000000000000e+00
    4 0  2.5366800000000000e-01 5.7931559999999998e+00 3.0967870000000000e+00  0.0000000000000000e+00 0.0000000000000000e+00 0.0000000000000000e+00
    5 0  7.4982620000000004e+00 -2.4822000000000000e-02 1.6003590000000001e+00  0.0000000000000000e+00 0.0000000000000000e+00 0.0000000000000000e+00
    6 0  8.2989299999999999e-01 4.7183599999999997e+00 1.7718650000000000e+00  0.0000000000000000e+00 0.0000000000000000e+00 0.0000000000000000e+00
    7 0  7.2331000000000001e-01 2.5223019999999998e+00 3.6581519999999998e+00  0.0000000000000000e+00 0.0000000000000000e+00 0.0000000000000000e+00
    8 0  1.9190480000000001e+00 3.7003970000000002e+00 2.9518840000000002e+00  0.0000000000000000e+00 0.0000000000000000e+00 0.0000000000000000e+00
    9 0  1.3207020000000000e+00 8.8599499999999998e-01 3.4123120000000000e+00  0.0000000000000000e+00 0.0000000000000000e+00 0.0000000000000000e+00
    10 0  5.6964459999999999e+00 2.9279600000000000e-01 1.3238529999999999e+00  0.0000000000000000e+00 0.0000000000000000e+00 0.0000000000000000e+00
    11 0  3.6163669999999999e+00 3.0982020000000001e+00 2.7896100000000001e-01  0.0000000000000000e+00 0.0000000000000000e+00 0.0000000000000000e+00
    12 0  3.5889329999999999e+00 4.8515220000000001e+00 9.6477999999999994e-02  0.0000000000000000e+00 0.0000000000000000e+00 0.0000000000000000e+00
    13 0  4.0837440000000003e+00 5.7996429999999997e+00 1.5068569999999999e+00  0.0000000000000000e+00 0.0000000000000000e+00 0.0000000000000000e+00
    14 0  3.1215690000000000e+00 2.7345619999999999e+00 2.0076299999999998e+00  0.0000000000000000e+00 0.0000000000000000e+00 0.0000000000000000e+00
    15 0  2.0293950000000001e+00 5.4438240000000002e+00 2.9192320000000000e+00  0.0000000000000000e+00 0.0000000000000000e+00 0.0000000000000000e+00
    16 0  4.2377529999999997e+00 4.0699569999999996e+00 1.5091460000000001e+00  0.0000000000000000e+00 0.0000000000000000e+00 0.0000000000000000e+00
    17 0  6.1632689999999997e+00 3.9887100000000002e+00 3.6764440000000000e+00  0.0000000000000000e+00 0.0000000000000000e+00 0.0000000000000000e+00
    18 0  6.8792140000000002e+00 2.9602339999999998e+00 6.6756300000000002e-01  0.0000000000000000e+00 0.0000000000000000e+00 0.0000000000000000e+00
    19 0  5.4498430000000004e+00 2.3611420000000001e+00 3.2038150000000001e+00  0.0000000000000000e+00 0.0000000000000000e+00 0.0000000000000000e+00
    20 0  5.7783889999999998e+00 5.6179379999999997e+00 4.1017659999999996e+00  0.0000000000000000e+00 0.0000000000000000e+00 0.0000000000000000e+00
    21 0  5.3927170000000002e+00 5.1137230000000002e+00 2.4354160000000000e+00  0.0000000000000000e+00 0.0000000000000000e+00 0.0000000000000000e+00
    22 0  5.8912389999999997e+00 3.5276179999999999e+00 2.0059529999999999e+00  0.0000000000000000e+00 0.0000000000000000e+00 0.0000000000000000e+00
    23 0  2.8400430000000001e+00 8.5707599999999995e-01 2.2373340000000002e+00  0.0000000000000000e+00 0.0000000000000000e+00 0.0000000000000000e+00
    24 0  5.9517949999999997e+00 1.4359299999999999e+00 1.1243100000000000e-01  0.0000000000000000e+00 0.0000000000000000e+00 0.0000000000000000e+00
    25 0  6.4252739999999999e+00 1.8237550000000000e+00 1.8711850000000001e+00  0.0000000000000000e+00 0.0000000000000000e+00 0.0000000000000000e+00
    26 0  3.7644489999999999e+00 1.8533890000000000e+00 3.3877530000000000e+00  0.0000000000000000e+00 0.0000000000000000e+00 0.0000000000000000e+00
    27 0  2.5011239999999999e+00 1.8118310000000000e+00 7.4462200000000001e-01  0.0000000000000000e+00 0.0000000000000000e+00 0.0000000000000000e+00
 Energy
    0.0000000000000000e+00
 PlusStress:  xx          yy          zz          yz          xz          xy
     -0.0000000000000000e+00 -0.0000000000000000e+00 -0.0000000000000000e+00 -0.0000000000000000e+00 -0.0000000000000000e+00 -0.0000000000000000e+00
END_CFG

BEGIN_CFG
 Size
    27
 Supercell
    8.4661880000000007e+00 0.0000000000000000e+00 0.0000000000000000e+00
    1.0327830000000000e+00 4.8303810000000000e+00 0.0000000000000000e+00
    -6.2001000000000001e-02 -2.1419000000000001e-02 4.8961399999999999e+00
 AtomData:  id type       cartes_x      cartes_y      cartes_z           fx          fy          fz
    1 0  4.0139509999999996e+00 1.6559269999999999e+00 9.0625599999999995e-01  0.0000000000000000e+00 0.0000000000000000e+00 0.0000000000000000e+00
    2 0  5.5607970000000000e+00 2.0966490000000002e+00 1.6779560000000000e+00  0.0000000000000000e+00 0.0000000000000000e+00 0.0000000000000000e+00
    3 0  9.0640850000000004e+00 4.6860799999999996e+00 1.6495120000000001e+00  0.0000000000000000e+00 0.0000000000000000e+00 0.0000000000000000e+00
    4 0  1.2568049999999999e+00 2.8648300000000000e+00 4.1779279999999996e+00  0.0000000000000000e+00 0.0000000000000000e+00 0.0000000000000000e+00
    5 0  6.1181559999999999e+00 3.6767180000000002e+00 1.8509290000000000e+00  0.0000000000000000e+00 0.0000000000000000e+00 0.0000000000000000e+00
    6 0  3.4341529999999998e+00 4.1575040000000003e+00 4.7615639999999999e+00  0.0000000000000000e+00 0.0000000000000000e+00 0.0000000000000000e+00
    7 0  1.2891690000000000e+00 2.1887889999999999e+00 8.4317100000000000e-01  0.0000000000000000e+00 0.0000000000000000e+00 0.0000000000000000e+00
    8 0  8.3602550000000004e+00 1.6058680000000001e+00 1.6787470000000000e+00  0.0000000000000000e+00 0.0000000000000000e+00 0.0000000000000000e+00
    9 0  1.9047339999999999e+00 3.7749820000000001e+00 7.6989200000000002e-01  0.0000000000000000e+00 0.0000000000000000e+00 0.0000000000000000e+00
    10 0  3.2915950000000000e+00 4.2145890000000001e+00 1.7188380000000001e+00  0.0000000000000000e+00 0.0000000000000000e+00 0.0000000000000000e+00
    11 0  4.7508460000000001e+00 4.7697070000000004e+00 9.3125899999999995e-01  0.0000000000000000e+00 0.0000000000000000e+00 0.0000000000000000e+00
    12 0  5.1642560000000000e+00 5.1716200000000001e-01 1.7003050000000000e+00  0.0000000000000000e+00 0.0000000000000000e+00 0.0000000000000000e+00
    13 0  6.8499549999999996e+00 1.0008900000000001e+00 8.6288900000000002e-01  0.0000000000000000e+00 0.0000000000000000e+00 0.0000000000000000e+00
    14 0  2.7312430000000001e+00 2.5208610000000000e+00 1.7543130000000000e+00  0.0000000000000000e+00 0.0000000000000000e+00 0.0000000000000000e+00
    15 0  3.1846200000000002e-01 5.9674400000000005e-01 3.0553640000000000e+00  0.0000000000000000e+00 0.0000000000000000e+00 0.0000000000000000e+00
    16 0  3.5364420000000001e+00 7.2136599999999995e-01 4.1802859999999997e+00  0.0000000000000000e+00 0.0000000000000000e+00 0.0000000000000000e+00
    17 0  8.7077369999999998e+00 4.0572999999999997e+00 3.3340900000000002e+00  0.0000000000000000e+00 0.0000000000000000e+00 0.0000000000000000e+00
    18 0  5.9650150000000002e+00 4.5647940000000000e+00 3.4554730000000000e+00  0.0000000000000000e+00 0.0000000000000000e+00 0.0000000000000000e+00
    19 0  2.5586150000000001e+00 1.9903649999999999e+00 3.3607770000000001e+00  0.0000000000000000e+00 0.0000000000000000e+00 0.0000000000000000e+00
    20 0  2.0525359999999999e+00 2.8333900000000001e-01 3.2742260000000001e+00  0.0000000000000000e+00 0.0000000000000000e+00 0.0000000000000000e+00
    21 0  5.5669579999999996e+00 2.9140830000000002e+00 3.4208840000000000e+00  0.0000000000000000e+00 0.0000000000000000e+00 0.0000000000000000e+00
    22 0  6.8145119999999997e+00 1.8644289999999999e+00 4.2062499999999998e+00  0.0000000000000000e+00 0.0000000000000000e+00 0.0000000000000000e+00
    23 0  5.4465709999999996e+00 1.2871370000000000e+00 3.2894280000000000e+00  0.0000000000000000e+00 0.0000000000000000e+00 0.0000000000000000e+00
    24 0  4.0262359999999999e+00 2.4596200000000001e+00 4.2110099999999999e+00  0.0000000000000000e+00 0.0000000000000000e+00 0.0000000000000000e+00
    25 0  6.4771310000000000e+00 1.9916800000000001e-01 4.2024770000000000e+00  0.0000000000000000e+00 0.0000000000000000e+00 0.0000000000000000e+00
    26 0  8.2712020000000006e+00 2.2977159999999999e+00 3.3462339999999999e+00  0.0000000000000000e+00 0.0000000000000000e+00 0.0000000000000000e+00
    27 0  7.9501119999999998e+00 3.3183940000000001e+00 1.9262319999999999e+00  0.0000000000000000e+00 0.0000000000000000e+00 0.0000000000000000e+00
 Energy
    0.0000000000000000e+00
 PlusStress:  xx          yy          zz          yz          xz          xy
     -0.0000000000000000e+00 -0.0000000000000000e+00 -0.0000000000000000e+00 -0.0000000000000000e+00 -0.0000000000000000e+00 -0.0000000000000000e+00
END_CFG

BEGIN_CFG
 Size
    27
 Supercell
    8.4881980000000006e+00 0.0000000000000000e+00 0.0000000000000000e+00
    9.1161400000000004e-01 4.8490669999999998e+00 0.0000000000000000e+00
    8.9861400000000002e-01 -1.8267230000000001e+00 4.8345159999999998e+00
 AtomData:  id type       cartes_x      cartes_y      cartes_z           fx          fy          fz
    1 0  3.4333740000000001e+00 8.8025200000000003e-01 1.0989770000000001e+00  0.0000000000000000e+00 0.0000000000000000e+00 0.0000000000000000e+00
    2 0  2.9808710000000000e+00 -1.1603010000000000e+00 4.7500600000000004e+00  0.0000000000000000e+00 0.0000000000000000e+00 0.0000000000000000e+00
    3 0  2.8667020000000001e+00 3.7724810000000000e+00 5.5781400000000003e-01  0.0000000000000000e+00 0.0000000000000000e+00 0.0000000000000000e+00
    4 0  1.2884610000000001e+00 3.2095069999999999e+00 1.0857640000000000e+00  0.0000000000000000e+00 0.0000000000000000e+00 0.0000000000000000e+00
    5 0  2.7674319999999999e+00 -2.0689500000000000e-01 3.3699930000000000e+00  0.0000000000000000e+00 0.0000000000000000e+00 0.0000000000000000e+00
    6 0  4.2014170000000002e+00 4.0665230000000001e+00 1.6609370000000001e+00  0.0000000000000000e+00 0.0000000000000000e+00 0.0000000000000000e+00
    7 0  2.8904690000000000e+00 1.5763090000000000e+00 2.6278899999999998e+00  0.0000000000000000e+00 0.0000000000000000e+00 0.0000000000000000e+00
    8 0  4.1914899999999999e+00 2.9725600000000001e+00 2.9447160000000001e+00  0.0000000000000000e+00 0.0000000000000000e+00 0.0000000000000000e+00
    9 0  1.3983150000000000e+00 8.3823199999999998e-01 3.2378499999999999e+00  0.0000000000000000e+00 0.0000000000000000e+00 0.0000000000000000e+00
    10 0  1.6057880000000000e+00 1.3734000000000000e-02 4.8115110000000003e+00  0.0000000000000000e+00 0.0000000000000000e+00 0.0000000000000000e+00
    11 0  1.4650570000000001e+00 2.4511989999999999e+00 2.6491579999999999e+00  0.0000000000000000e+00 0.0000000000000000e+00 0.0000000000000000e+00
    12 0  4.9373230000000001e+00 -5.8123000000000001e-02 1.4633700000000001e+00  0.0000000000000000e+00 0.0000000000000000e+00 0.0000000000000000e+00
    13 0  5.5456050000000001e+00 3.6591000000000001e-01 3.3092510000000002e+00  0.0000000000000000e+00 0.0000000000000000e+00 0.0000000000000000e+00
    14 0  5.5922510000000001e+00 2.9285690000000000e+00 1.5348020000000000e+00  0.0000000000000000e+00 0.0000000000000000e+00 0.0000000000000000e+00
    15 0  5.7610979999999996e+00 2.1365539999999998e+00 3.1016800000000000e+00  0.0000000000000000e+00 0.0000000000000000e+00 0.0000000000000000e+00
    16 0  6.2572989999999997e+00 4.1155799999999998e-01 3.4966300000000000e-01  0.0000000000000000e+00 0.0000000000000000e+00 0.0000000000000000e+00
    17 0  7.0590310000000001e+00 -4.8421799999999998e-01 3.6810480000000001e+00  0.0000000000000000e+00 0.0000000000000000e+00 0.0000000000000000e+00
    18 0  8.5037219999999998e+00 4.8215400000000003e-01 4.1870339999999997e+00  0.0000000000000000e+00 0.0000000000000000e+00 0.0000000000000000e+00
    19 0  8.5203480000000003e+00 4.3523019999999999e+00 9.0549400000000002e-01  0.0000000000000000e+00 0.0000000000000000e+00 0.0000000000000000e+00
    20 0  7.0950639999999998e+00 1.2642150000000001e+00 3.6185470000000000e+00  0.0000000000000000e+00 0.0000000000000000e+00 0.0000000000000000e+00
    21 0  7.7725830000000000e+00 1.1992590000000001e+00 8.0666300000000002e-01  0.0000000000000000e+00 0.0000000000000000e+00 0.0000000000000000e+00
    22 0  7.2065029999999997e+00 2.2603469999999999e+00 2.1296789999999999e+00  0.0000000000000000e+00 0.0000000000000000e+00 0.0000000000000000e+00
    23 0  8.5582580000000004e+00 3.3859490000000001e+00 2.3721649999999999e+00  0.0000000000000000e+00 0.0000000000000000e+00 0.0000000000000000e+00
    24 0  6.8755689999999996e+00 3.6016260000000000e+00 4.4303799999999999e-01  0.0000000000000000e+00 0.0000000000000000e+00 0.0000000000000000e+00
    25 0  4.2043489999999997e+00 1.5187759999999999e+00 3.7660960000000001e+00  0.0000000000000000e+00 0.0000000000000000e+00 0.0000000000000000e+00
    26 0  4.3388689999999999e+00 7.9078999999999997e-02 4.5987309999999999e+00  0.0000000000000000e+00 0.0000000000000000e+00 0.0000000000000000e+00
    27 0  4.9541670000000000e+00 1.5033190000000001e+00 5.0139000000000000e-01  0.0000000000000000e+00 0.0000000000000000e+00 0.0000000000000000e+00
 Energy
    0.0000000000000000e+00
 PlusStress:  xx          yy          zz          yz          xz          xy
     -0.0000000000000000e+00 -0.0000000000000000e+00 -0.0000000000000000e+00 -0.0000000000000000e+00 -0.0000000000000000e+00 -0.0000000000000000e+00
 Feature   EFS_by	MTP10
 Feature   MV_grade	4.607181
 Feature   from	database:B.cfgs
 Feature   min_dist	1.668563
 Feature   number	4
END_CFG

BEGIN_CFG
 Size
    27
 Supercell
    6.5101820000000004e+00 0.0000000000000000e+00 0.0000000000000000e+00
    -2.3525699999999999e-01 5.8265950000000002e+00 0.0000000000000000e+00
    -1.7305539999999999e+00 -4.0298899999999999e-01 5.6267079999999998e+00
 AtomData:  id type       cartes_x      cartes_y      cartes_z           fx          fy          fz
    1 0  3.4304929999999998e+00 3.9006930000000000e+00 2.1480619999999999e+00  0.0000000000000000e+00 0.0000000000000000e+00 0.0000000000000000e+00
    2 0  1.4517000000000000e+00 9.1852000000000003e-02 2.1886990000000002e+00  0.0000000000000000e+00 0.0000000000000000e+00 0.0000000000000000e+00
    3 0  1.2639460000000000e+00 1.8454870000000001e+00 1.9136660000000001e+00  0.0000000000000000e+00 0.0000000000000000e+00 0.0000000000000000e+00
    4 0  2.2927240000000002e+00 2.8299919999999998e+00 2.9047420000000002e+00  0.0000000000000000e+00 0.0000000000000000e+00 0.0000000000000000e+00
    5 0  1.2880710000000000e+00 9.5029900000000000e-01 5.1331870000000004e+00  0.0000000000000000e+00 0.0000000000000000e+00 0.0000000000000000e+00
    6 0  1.5535120000000000e+00 1.9478750000000000e+00 1.2631600000000001e-01  0.0000000000000000e+00 0.0000000000000000e+00 0.0000000000000000e+00
    7 0  2.1717860000000000e+00 2.3627069999999999e+00 4.5807669999999998e+00  0.0000000000000000e+00 0.0000000000000000e+00 0.0000000000000000e+00
    8 0  4.6234060000000001e+00 1.1892879999999999e+00 2.5783879999999999e+00  0.0000000000000000e+00 0.0000000000000000e+00 0.0000000000000000e+00
    9 0  3.8942610000000002e+00 1.7602000000000001e-01 3.8399730000000001e+00  0.0000000000000000e+00 0.0000000000000000e+00 0.0000000000000000e+00
    10 0  3.8709850000000001e+00 6.5991999999999995e-01 8.9749100000000004e-01  0.0000000000000000e+00 0.0000000000000000e+00 0.0000000000000000e+00
    11 0  5.1873449999999997e+00 3.9961090000000001e+00 2.4070179999999999e+00  0.0000000000000000e+00 0.0000000000000000e+00 0.0000000000000000e+00
    12 0  3.5686710000000001e+00 1.8725970000000001e+00 3.7057159999999998e+00  0.0000000000000000e+00 0.0000000000000000e+00 0.0000000000000000e+00
    13 0  3.1533790000000002e+00 1.0303709999999999e+00 5.2061190000000002e+00  0.0000000000000000e+00 0.0000000000000000e+00 0.0000000000000000e+00
    14 0  1.4142960000000000e+00 3.8049080000000002e+00 4.1033330000000001e+00  0.0000000000000000e+00 0.0000000000000000e+00 0.0000000000000000e+00
    15 0  -5.2204300000000003e-01 2.3989280000000002e+00 2.2315440000000000e+00  0.0000000000000000e+00 0.0000000000000000e+00 0.0000000000000000e+00
    16 0  -1.2867000000000000e-02 2.2392330000000000e+00 6.0043899999999994e-01  0.0000000000000000e+00 0.0000000000000000e+00 0.0000000000000000e+00
    17 0  -3.8395200000000002e-01 3.8798439999999998e+00 9.6107200000000004e-01  0.0000000000000000e+00 0.0000000000000000e+00 0.0000000000000000e+00
    18 0  5.4764679999999997e+00 9.7914900000000005e-01 1.1266060000000000e+00  0.0000000000000000e+00 0.0000000000000000e+00 0.0000000000000000e+00
    19 0  -1.0074030000000000e+00 3.0434169999999998e+00 5.3296489999999999e+00  0.0000000000000000e+00 0.0000000000000000e+00 0.0000000000000000e+00
    20 0  5.2374809999999998e+00 5.4470190000000001e+00 3.3811339999999999e+00  0.0000000000000000e+00 0.0000000000000000e+00 0.0000000000000000e+00
    21 0  8.9634000000000003e-01 5.4303210000000002e+00 3.8682710000000000e+00  0.0000000000000000e+00 0.0000000000000000e+00 0.0000000000000000e+00
    22 0  -3.3421499999999998e-01 4.1563809999999997e+00 4.2402730000000002e+00  0.0000000000000000e+00 0.0000000000000000e+00 0.0000000000000000e+00
    23 0  -2.2507800000000000e-01 3.0404000000000000e-02 4.8753620000000000e+00  0.0000000000000000e+00 0.0000000000000000e+00 0.0000000000000000e+00
    24 0  2.4133870000000002e+00 4.9452530000000001e+00 3.1526689999999999e+00  0.0000000000000000e+00 0.0000000000000000e+00 0.0000000000000000e+00
    25 0  2.6050659999999999e+00 5.1751319999999996e+00 1.3901820000000000e+00  0.0000000000000000e+00 0.0000000000000000e+00 0.0000000000000000e+00
    26 0  -3.9761400000000002e-01 5.3933239999999998e+00 1.6437150000000000e+00  0.0000000000000000e+00 0.0000000000000000e+00 0.0000000000000000e+00
    27 0  1.0088480000000000e+00 4.9926769999999996e+00 6.0266399999999998e-01  0.0000000000000000e+00 0.0000000000000000e+00 0.0000000000000000e+00
 Energy
    0.0000000000000000e+00
 PlusStress:  xx          yy          zz          yz          xz          xy
     -0.0000000000000000e+00 -0.0000000000000000e+00 -0.0000000000000000e+00 -0.0000000000000000e+00 -0.0000000000000000e+00 -0.0000000000000000e+00
 Feature   EFS_by	MTP10
 Feature   MV_grade	7.155300
 Feature   from	database:B.cfgs
 Feature   min_dist	1.652870
 Feature   number	5
END_CFG

BEGIN_CFG
 Size
    27
 Supercell
    8.5808400000000002e+00 0.0000000000000000e+00 0.0000000000000000e+00
    -2.6355499999999998e-01 4.3795500000000001e+00 0.0000000000000000e+00
    -1.8174049999999999e+00 -2.1179589999999999e+00 5.0537609999999997e+00
 AtomData:  id type       cartes_x      cartes_y      cartes_z           fx          fy          fz
    1 0  3.7216290000000001e+00 2.6359460000000001e+00 7.6134599999999997e-01  0.0000000000000000e+00 0.0000000000000000e+00 0.0000000000000000e+00
    2 0  2.1468810000000000e+00 1.8284260000000001e+00 4.8273159999999997e+00  0.0000000000000000e+00 0.0000000000000000e+00 0.0000000000000000e+00
    3 0  4.5089649999999999e+00 -9.5509999999999998e-02 1.5256950000000000e+00  0.0000000000000000e+00 0.0000000000000000e+00 0.0000000000000000e+00
    4 0  3.4926439999999999e+00 1.6448460000000000e+00 3.6383679999999998e+00  0.0000000000000000e+00 0.0000000000000000e+00 0.0000000000000000e+00
    5 0  2.7531390000000000e+00 -1.2407930000000000e+00 3.8049219999999999e+00  0.0000000000000000e+00 0.0000000000000000e+00 0.0000000000000000e+00
    6 0  3.9879240000000000e+00 2.9012980000000002e+00 2.5422189999999998e+00  0.0000000000000000e+00 0.0000000000000000e+00 0.0000000000000000e+00
    7 0  3.1586159999999999e+00 1.7566999999999999e-02 2.8126880000000001e+00  0.0000000000000000e+00 0.0000000000000000e+00 0.0000000000000000e+00
    8 0  3.2831500000000000e+00 2.8357500000000002e-01 4.6892350000000000e+00  0.0000000000000000e+00 0.0000000000000000e+00 0.0000000000000000e+00
    9 0  3.3919470000000000e+00 1.3223190000000000e+00 1.7934920000000001e+00  0.0000000000000000e+00 0.0000000000000000e+00 0.0000000000000000e+00
    10 0  -3.2074700000000000e-01 -1.8200499999999999e+00 4.9396220000000000e+00  0.0000000000000000e+00 0.0000000000000000e+00 0.0000000000000000e+00
    11 0  4.8424800000000001e-01 1.1282589999999999e+00 4.6813250000000002e+00  0.0000000000000000e+00 0.0000000000000000e+00 0.0000000000000000e+00
    12 0  1.5944039999999999e+00 5.9052600000000000e-01 1.7053229999999999e+00  0.0000000000000000e+00 0.0000000000000000e+00 0.0000000000000000e+00
    13 0  5.9759300000000004e-01 2.0766320000000000e+00 1.8648620000000000e+00  0.0000000000000000e+00 0.0000000000000000e+00 0.0000000000000000e+00
    14 0  2.1238690000000000e+00 1.8374480000000000e+00 6.4632900000000004e-01  0.0000000000000000e+00 0.0000000000000000e+00 0.0000000000000000e+00
    15 0  9.1890000000000005e-01 3.3388300000000002e+00 8.5143000000000002e-01  0.0000000000000000e+00 0.0000000000000000e+00 0.0000000000000000e+00
    16 0  1.3658450000000000e+00 -7.9641799999999996e-01 2.7128980000000000e+00  0.0000000000000000e+00 0.0000000000000000e+00 0.0000000000000000e+00
    17 0  2.5740200000000002e-01 7.8114300000000003e-01 2.9070779999999998e+00  0.0000000000000000e+00 0.0000000000000000e+00 0.0000000000000000e+00
    18 0  6.4879999999999998e-03 -5.2483900000000006e-01 3.8988399999999999e+00  0.0000000000000000e+00 0.0000000000000000e+00 0.0000000000000000e+00
    19 0  5.1939219999999997e+00 2.3646739999999999e+00 3.7231399999999999e+00  0.0000000000000000e+00 0.0000000000000000e+00 0.0000000000000000e+00
    20 0  7.2004919999999997e+00 1.0083700000000000e-01 2.9135330000000002e+00  0.0000000000000000e+00 0.0000000000000000e+00 0.0000000000000000e+00
    21 0  6.2222530000000003e+00 3.6198399999999997e-01 1.5325210000000000e+00  0.0000000000000000e+00 0.0000000000000000e+00 0.0000000000000000e+00
    22 0  4.8384640000000001e+00 1.2960570000000000e+00 4.9788110000000003e+00  0.0000000000000000e+00 0.0000000000000000e+00 0.0000000000000000e+00
    23 0  6.3647859999999996e+00 2.0661230000000002e+00 9.3093400000000004e-01  0.0000000000000000e+00 0.0000000000000000e+00 0.0000000000000000e+00
    24 0  5.9186100000000001e+00 3.1494010000000001e+00 2.3937369999999998e+00  0.0000000000000000e+00 0.0000000000000000e+00 0.0000000000000000e+00
    25 0  7.3531610000000001e+00 7.5008799999999998e-01 2.9091099999999998e-01  0.0000000000000000e+00 0.0000000000000000e+00 0.0000000000000000e+00
    26 0  8.0235789999999998e+00 2.3493840000000001e+00 3.9058799999999999e-01  0.0000000000000000e+00 0.0000000000000000e+00 0.0000000000000000e+00
    27 0  6.8197500000000000e+00 -1.0224439999999999e+00 4.1266550000000004e+00  0.0000000000000000e+00 0.0000000000000000e+00 0.0000000000000000e+00
 Energy
    0.0000000000000000e+00
 PlusStress:  xx          yy          zz          yz          xz          xy
     -0.0000000000000000e+00 -0.0000000000000000e+00 -0.0000000000000000e+00 -0.0000000000000000e+00 -0.0000000000000000e+00 -0.0000000000000000e+00
 Feature   EFS_by	MTP10
 Feature   MV_grade	2.980897
 Feature   from	database:B.cfgs
 Feature   min_dist	1.650281
 Feature   number	6
END_CFG

BEGIN_CFG
 Size
    27
 Supercell
    5.9122219999999999e+00 0.0000000000000000e+00 0.0000000000000000e+00
    -7.9000000000000004e-01 6.2485609999999996e+00 0.0000000000000000e+00
    1.1318729999999999e+00 -1.0533420000000000e+00 5.3562370000000001e+00
 AtomData:  id type       cartes_x      cartes_y      cartes_z           fx          fy          fz
    1 0  2.0401159999999998e+00 -3.1579400000000002e-01 1.7622830000000000e+00  0.0000000000000000e+00 0.0000000000000000e+00 0.0000000000000000e+00
    2 0  2.4965400000000000e+00 9.2201299999999997e-01 4.4583050000000002e+00  0.0000000000000000e+00 0.0000000000000000e+00 0.0000000000000000e+00
    3 0  3.1726950000000000e+00 7.8487700000000005e-01 8.6691399999999996e-01  0.0000000000000000e+00 0.0000000000000000e+00 0.0000000000000000e+00
    4 0  1.8294760000000001e+00 1.4381139999999999e+00 1.7608640000000000e+00  0.0000000000000000e+00 0.0000000000000000e+00 0.0000000000000000e+00
    5 0  1.3449190000000000e+00 5.6225899999999995e-01 3.2531469999999998e+00  0.0000000000000000e+00 0.0000000000000000e+00 0.0000000000000000e+00
    6 0  2.8168980000000001e+00 2.6367270000000000e+00 4.8131120000000003e+00  0.0000000000000000e+00 0.0000000000000000e+00 0.0000000000000000e+00
    7 0  1.8810290000000001e+00 3.7043370000000002e+00 3.5129359999999998e+00  0.0000000000000000e+00 0.0000000000000000e+00 0.0000000000000000e+00
    8 0  7.7614300000000003e-01 2.8653629999999999e+00 2.3055770000000000e+00  0.0000000000000000e+00 0.0000000000000000e+00 0.0000000000000000e+00
    9 0  8.9173899999999995e-01 2.4855790000000000e+00 6.4980499999999997e-01  0.0000000000000000e+00 0.0000000000000000e+00 0.0000000000000000e+00