BEGIN_CFG
 Size
    12
 Supercell
    1.0000000000000000e+01 0.0000000000000000e+00 0.0000000000000000e+00
    0.0000000000000000e+00 1.0000000000000000e+01 0.0000000000000000e+00
    0.0000000000000000e+00 0.0000000000000000e+00 1.0000000000000000e+01
 AtomData:  id type       cartes_x      cartes_y      cartes_z      charge
    1 0  0.0000000000000000e+00 0.0000000000000000e+00 0.0000000000000000e+00    2.0000000000000000e+00
    2 0  5.0000000000000000e+00 5.0000000000000000e+00 0.0000000000000000e+00    2.0000000000000000e+00
    3 0  5.0000000000000000e+00 0.0000000000000000e+00 5.0000000000000000e+00    2.0000000000000000e+00
    4 0  0.0000000000000000e+00 5.0000000000000000e+00 5.0000000000000000e+00    2.0000000000000000e+00
    5 1  2.5000000000000000e+00 2.5000000000000000e+00 2.5000000000000000e+00    -1.0000000000000000e+00
    6 1  2.5000000000000000e+00 2.5000000000000000e+00 7.5000000000000000e+00    -1.0000000000000000e+00
    7 1  7.5000000000000000e+00 7.5000000000000000e+00 2.5000000000000000e+00    -1.0000000000000000e+00
    8 1  7.5000000000000000e+00 7.5000000000000000e+00 7.5000000000000000e+00    -1.0000000000000000e+00
    9 1  7.5000000000000000e+00 2.5000000000000000e+00 7.5000000000000000e+00    -1.0000000000000000e+00
    10 1  7.5000000000000000e+00 2.5000000000000000e+00 2.5000000000000000e+00    -1.0000000000000000e+00
    11 1  2.5000000000000000e+00 7.5000000000000000e+00 7.5000000000000000e+00    -1.0000000000000000e+00
    12 1  2.5000000000000000e+00 7.5000000000000000e+00 2.5000000000000000e+00    -1.0000000000000000e+00
END_CFG

