BEGIN_CFG
 Size
    1
 Supercell
    3.1804999999999999e+00 0.0000000000000000e+00 0.0000000000000000e+00
    0.0000000000000000e+00 3.1804999999999999e+00 0.0000000000000000e+00
    1.5902499999999999e+00 1.5902499999999999e+00 1.5902499999999999e+00
 AtomData:  id type       cartes_x      cartes_y      cartes_z
    1 0  0.0000000000000000e+00 0.0000000000000000e+00 0.0000000000000000e+00
 PlusStress:  xx          yy          zz          yz          xz          xy
     -5.7000000000000002e-03 -5.7000000000000002e-03 -5.7000000000000002e-03 -0.0000000000000000e+00 -0.0000000000000000e+00 -0.0000000000000000e+00
END_CFG

BEGIN_CFG
 Size
    1
 Supercell
    3.1804999999999999e+00 0.0000000000000000e+00 0.0000000000000000e+00
    0.0000000000000000e+00 3.1804999999999999e+00 0.0000000000000000e+00
    1.5902499999999999e+00 1.5902499999999999e+00 1.5902499999999999e+00
 AtomData:  id type       cartes_x      cartes_y      cartes_z           fx          fy          fz
    1 0  0.0000000000000000e+00 0.0000000000000000e+00 0.0000000000000000e+00  0.0000000000000000e+00 0.0000000000000000e+00 0.0000000000000000e+00
END_CFG

BEGIN_CFG
 Size
    1
 Supercell
    3.1804999999999999e+00 0.0000000000000000e+00 0.0000000000000000e+00
    0.0000000000000000e+00 3.1804999999999999e+00 0.0000000000000000e+00
    1.5902499999999999e+00 1.5902499999999999e+00 1.5902499999999999e+00
 AtomData:  id type       cartes_x      cartes_y      cartes_z
    1 0  0.0000000000000000e+00 0.0000000000000000e+00 0.0000000000000000e+00
 Energy
    -1.1194835125297001e+01
END_CFG

BEGIN_CFG
 Size
    1
 Supercell
    3.1516329999999999e+00 0.0000000000000000e+00 0.0000000000000000e+00
    -5.0505000000000001e-02 3.1805010000000000e+00 0.0000000000000000e+00
    1.4012380000000000e+00 1.6110880000000001e+00 1.5836680000000001e+00
 AtomData:  id type       cartes_x      cartes_y      cartes_z           fx          fy          fz
    1 0  0.0000000000000000e+00 0.0000000000000000e+00 0.0000000000000000e+00  0.0000000000000000e+00 0.0000000000000000e+00 0.0000000000000000e+00
 Energy
    -1.1122702777841999e+01
 PlusStress:  xx          yy          zz          yz          xz          xy
     5.9516999999999998e-01 5.2420000000000000e-01 5.9328999999999998e-01 -1.3197999999999999e-01 1.4174899999999999e+00 1.8694000000000000e-01
END_CFG

BEGIN_CFG
 Size
    1
 Supercell
    3.1516329999999999e+00 0.0000000000000000e+00 0.0000000000000000e+00
    -5.0505000000000001e-02 3.2999710000000002e+00 0.0000000000000000e+00
    1.4012380000000000e+00 1.6110880000000001e+00 1.5836680000000001e+00
 AtomData:  id type       cartes_x      cartes_y      cartes_z           fx          fy          fz
    1 0  0.0000000000000000e+00 0.0000000000000000e+00 0.0000000000000000e+00  0.0000000000000000e+00 0.0000000000000000e+00 0.0000000000000000e+00
 Energy
    -1.1102776969504999e+01
 PlusStress:  xx          yy          zz          yz          xz          xy
     -1.4838000000000001e-01 -1.2286200000000000e+00 -1.7746000000000001e-01 4.2924000000000001e-01 1.2462800000000001e+00 3.1062000000000001e-01
END_CFG

BEGIN_CFG
 Size
    128
 Supercell
    1.2721996000000001e+01 0.0000000000000000e+00 0.0000000000000000e+00
    0.0000000000000000e+00 1.2721996000000001e+01 0.0000000000000000e+00
    0.0000000000000000e+00 0.0000000000000000e+00 1.2721996000000001e+01
 AtomData:  id type       cartes_x      cartes_y      cartes_z           fx          fy          fz
    1 0  7.4390000000000003e-03 -2.1908000000000000e-02 3.3021000000000002e-02  -9.4298999999999994e-02 2.1926699999999999e-01 -3.2025900000000002e-01
    2 0  1.6172750000000000e+00 1.5617610000000000e+00 1.6039170000000000e+00  -3.3523199999999997e-01 3.2894899999999999e-01 -1.8041099999999999e-01
    3 0  -5.9950000000000003e-03 1.7156999999999999e-02 3.1940610000000000e+00  -1.8401200000000001e-01 -2.9593199999999997e-01 -2.5624000000000001e-02
    4 0  1.5872400000000000e+00 1.5209960000000000e+00 4.8031249999999996e+00  -2.0197899999999999e-01 7.5599700000000003e-01 -2.2227500000000000e-01
    5 0  -2.3241000000000001e-02 -1.2902000000000000e-02 6.3936880000000000e+00  -4.6533999999999999e-02 3.8169399999999998e-01 -3.5455500000000001e-01
    6 0  1.5485050000000000e+00 1.5829160000000000e+00 7.9578620000000004e+00  4.8821999999999999e-01 -8.2154000000000005e-02 2.3933299999999999e-01
    7 0  -3.3633999999999997e-02 -1.5494000000000001e-02 9.5691360000000003e+00  3.2296500000000000e-01 1.4452000000000001e-01 -7.2037000000000004e-02
    8 0  1.5525890000000000e+00 1.5945430000000000e+00 1.1135410000000000e+01  4.5515499999999998e-01 -2.7513599999999999e-01 1.1760500000000000e-01
    9 0  8.1370000000000001e-03 3.2056909999999998e+00 -6.9100000000000003e-03  1.8390500000000001e-01 -3.3424500000000001e-01 3.6816500000000002e-01
    10 0  1.5880060000000000e+00 4.7480830000000003e+00 1.6177550000000001e+00  -7.7923000000000006e-02 -8.2621000000000000e-02 -3.5853000000000002e-01
    11 0  5.9839999999999997e-03 3.1884560000000000e+00 3.1946850000000002e+00  -1.0069000000000000e-02 -2.5067899999999999e-01 8.4300000000000000e-02
    12 0  1.5994459999999999e+00 4.7032809999999996e+00 4.7779439999999997e+00  -5.0849599999999995e-01 6.5830699999999998e-01 3.1969500000000001e-01
    13 0  -1.6348999999999999e-02 3.1749930000000002e+00 6.3788130000000001e+00  1.2302500000000000e-01 -1.3234000000000001e-01 -2.6165600000000000e-01
    14 0  1.5820790000000000e+00 4.7579089999999997e+00 7.9635579999999999e+00  2.4126700000000001e-01 -1.0293400000000000e-01 -1.8617000000000000e-01
    15 0  -3.4737999999999998e-02 3.1689500000000002e+00 9.5395099999999999e+00  5.8181499999999997e-01 2.4596699999999999e-01 1.7979100000000001e-01
    16 0  1.6145099999999999e+00 4.7749170000000003e+00 1.1117170000000000e+01  -9.8593000000000000e-02 -1.4871000000000001e-01 9.5202999999999996e-02
    17 0  5.2981000000000000e-02 6.3411920000000004e+00 9.8060000000000005e-03  -4.4251699999999999e-01 1.2643099999999999e-01 2.4379999999999999e-02
    18 0  1.5914530000000000e+00 7.9148240000000003e+00 1.5873679999999999e+00  -1.4312999999999999e-02 3.3218900000000001e-01 5.5327000000000001e-02
    19 0  -1.1400000000000000e-03 6.3616970000000004e+00 3.2368380000000001e+00  -1.2703700000000001e-01 -1.0251100000000000e-01 -5.3976700000000000e-01
    20 0  1.5568400000000000e+00 7.9320000000000004e+00 4.7732900000000003e+00  2.0636499999999999e-01 1.0836400000000000e-01 4.5432200000000000e-01
    21 0  1.1117000000000000e-02 6.3523810000000003e+00 6.3943190000000003e+00  4.9109999999999996e-03 2.5707500000000000e-01 -3.6834899999999998e-01
    22 0  1.6528540000000000e+00 7.9363780000000004e+00 7.9619499999999999e+00  -5.5445199999999994e-01 2.4353800000000000e-01 -2.6014799999999999e-01
    23 0  6.4189999999999997e-02 6.3743800000000004e+00 9.5129380000000001e+00  -4.1876799999999997e-01 -3.6017700000000002e-01 5.1745799999999997e-01
    24 0  1.6477059999999999e+00 7.9443869999999999e+00 1.1120362999999999e+01  -1.3552200000000000e-01 -1.7180799999999999e-01 2.9041000000000001e-02
    25 0  2.1210000000000000e-02 9.5043140000000008e+00 -2.1151000000000000e-02  3.5323000000000000e-02 2.0189499999999999e-01 4.6820499999999998e-01
    26 0  1.5653889999999999e+00 1.1122166999999999e+01 1.6141890000000001e+00  2.6243000000000000e-01 -3.4880800000000001e-01 -3.4012799999999999e-01
    27 0  -1.5789999999999998e-02 9.5119620000000005e+00 3.2025809999999999e+00  1.0620700000000000e-01 6.3661900000000005e-01 -3.2867700000000000e-01
    28 0  1.5766150000000001e+00 1.1131322000000001e+01 4.7904200000000001e+00  -5.3732000000000002e-02 -3.3342600000000000e-01 -3.4957000000000002e-02
    29 0  -2.0958000000000001e-02 9.5689670000000007e+00 6.3652610000000003e+00  2.9302899999999998e-01 -2.0755799999999999e-01 2.9007000000000002e-02
    30 0  1.5719630000000000e+00 1.1127841000000000e+01 7.9672640000000001e+00  3.1017200000000000e-01 -1.9569000000000000e-02 3.5335999999999999e-02
    31 0  3.3489999999999999e-02 9.5359739999999995e+00 9.5314150000000009e+00  -1.2078700000000001e-01 4.8924000000000002e-02 1.8597400000000000e-01
    32 0  1.6014550000000001e+00 1.1116054000000000e+01 1.1133213000000000e+01  7.4989999999999996e-03 4.6587000000000003e-02 6.5323000000000006e-02
    33 0  3.1845669999999999e+00 -2.0861000000000001e-02 5.8510000000000003e-03  -1.7789500000000000e-01 1.6877600000000001e-01 -7.8161999999999995e-02
    34 0  4.7941130000000003e+00 1.5959690000000000e+00 1.5911480000000000e+00  -4.7395799999999999e-01 -4.9980500000000000e-01 -1.1169100000000000e-01
    35 0  3.1515569999999999e+00 -4.2717999999999999e-02 3.1812330000000002e+00  5.2717800000000004e-01 3.2462099999999999e-01 1.2125100000000000e-01
    36 0  4.7732180000000000e+00 1.5816990000000000e+00 4.7951579999999998e+00  -2.4639000000000000e-01 -2.3630899999999999e-01 -4.4304300000000002e-01
    37 0  3.1738270000000002e+00 -2.3961000000000000e-02 6.3957379999999997e+00  1.0252000000000001e-02 3.0654399999999998e-01 -1.3349400000000000e-01
    38 0  4.7907929999999999e+00 1.6412100000000001e+00 7.9747230000000000e+00  -5.0173599999999996e-01 -6.9724200000000003e-01 -3.2777499999999998e-01
    39 0  3.1705470000000000e+00 -3.3089999999999999e-03 9.5686169999999997e+00  1.1410800000000000e-01 4.6545999999999997e-02 -3.2477400000000001e-01
    40 0  4.7592520000000000e+00 1.6039520000000000e+00 1.1140722999999999e+01  3.5144000000000002e-02 -3.8000600000000001e-01 -2.8032600000000002e-01
    41 0  3.1908750000000001e+00 3.1583510000000001e+00 -2.8503000000000001e-02  -4.7994399999999998e-01 8.0878000000000005e-02 5.2807499999999996e-01
    42 0  4.7195369999999999e+00 4.7241830000000000e+00 1.5958349999999999e+00  5.0063199999999997e-01 5.1219899999999996e-01 5.3142000000000002e-02
    43 0  3.1750660000000002e+00 3.1343109999999998e+00 3.2053060000000002e+00  -1.4283000000000001e-02 -4.2653999999999997e-02 -3.3233200000000002e-01
    44 0  4.7306879999999998e+00 4.7305149999999996e+00 4.7779970000000000e+00  3.1708500000000001e-01 6.1093900000000001e-01 -3.7859399999999999e-01
    45 0  3.1589710000000002e+00 3.1589760000000000e+00 6.3551500000000001e+00  1.2465800000000000e-01 -1.7991699999999999e-01 4.1527500000000001e-01
    46 0  4.7761329999999997e+00 4.7692790000000000e+00 7.9007849999999999e+00  5.0033000000000001e-02 9.5296000000000006e-02 6.4550500000000000e-01
    47 0  3.1681130000000000e+00 3.1703440000000001e+00 9.5577159999999992e+00  2.5843999999999999e-02 9.4565999999999997e-02 -4.7313300000000003e-01
    48 0  4.7858710000000002e+00 4.7487139999999997e+00 1.1110391000000000e+01  5.4861000000000000e-02 3.2855099999999998e-01 5.4847000000000000e-02
    49 0  3.2003720000000002e+00 6.3303320000000003e+00 2.3270000000000001e-03  -1.9830400000000001e-01 8.6456000000000005e-02 -8.9146000000000003e-02
    50 0  4.7245720000000002e+00 7.9305240000000001e+00 1.6105849999999999e+00  2.9489599999999999e-01 -8.4708000000000006e-02 -4.3957999999999997e-02
    51 0  3.1125060000000002e+00 6.3115209999999999e+00 3.1943130000000002e+00  8.3419600000000005e-01 3.4383999999999998e-01 4.2680000000000001e-03
    52 0  4.7036579999999999e+00 7.9580380000000002e+00 4.7894139999999998e+00  5.2796699999999996e-01 -3.4642299999999998e-01 -2.8060499999999999e-01
    53 0  3.1729219999999998e+00 6.3422390000000002e+00 6.3680839999999996e+00  1.1515400000000001e-01 3.3195000000000002e-02 -1.3591800000000001e-01
    54 0  4.8490810000000000e+00 7.9407209999999999e+00 7.9495449999999996e+00  -8.4318700000000002e-01 1.9182099999999999e-01 -8.2642999999999994e-02
    55 0  3.2483119999999999e+00 6.3438770000000000e+00 9.5097129999999996e+00  -2.7660699999999999e-01 4.9445999999999997e-02 4.1306100000000001e-01
    56 0  4.8385509999999998e+00 7.9048870000000004e+00 1.1157536000000000e+01  -7.6437900000000003e-01 4.6694600000000003e-01 -5.7296599999999998e-01
    57 0  3.2102029999999999e+00 9.5227389999999996e+00 -2.5408000000000000e-02  -5.3822599999999998e-01 -6.9598999999999994e-02 3.7328899999999998e-01
    58 0  4.7528319999999997e+00 1.1108085000000001e+01 1.5556209999999999e+00  2.4100000000000000e-02 1.4215800000000001e-01 5.6602399999999997e-01
    59 0  3.1420880000000002e+00 9.5089900000000007e+00 3.1936439999999999e+00  1.3828499999999999e-01 3.1830900000000001e-01 -1.5928100000000001e-01
    60 0  4.7454700000000001e+00 1.1129980000000000e+01 4.7798179999999997e+00  -2.8673000000000001e-02 5.1124000000000003e-02 -3.4604400000000002e-01
    61 0  3.1770529999999999e+00 9.5178080000000005e+00 6.3844570000000003e+00  -1.1768700000000000e-01 3.4956199999999998e-01 -1.7741699999999999e-01
    62 0  4.7875529999999999e+00 1.1148552000000000e+01 7.9458810000000000e+00  -3.2130900000000001e-01 -3.6319999999999998e-02 4.2657699999999998e-01
    63 0  3.2142569999999999e+00 9.5189129999999995e+00 9.5294070000000008e+00  1.3403399999999999e-01 2.2877200000000000e-01 2.1556700000000001e-01
    64 0  4.7824900000000001e+00 1.1122106000000000e+01 1.1135312000000001e+01  6.1513999999999999e-02 1.7499000000000001e-02 -3.9035799999999998e-01
    65 0  6.3464369999999999e+00 3.3440000000000002e-03 -3.9836999999999997e-02  4.3098100000000000e-01 -1.4085200000000000e-01 3.6901400000000001e-01
    66 0  7.9727610000000002e+00 1.5907290000000001e+00 1.5671880000000000e+00  -2.1058099999999999e-01 2.2281400000000001e-01 -2.4554699999999999e-01
    67 0  6.3451820000000003e+00 -1.5375000000000000e-02 3.1295320000000002e+00  -7.2545999999999999e-02 1.5868699999999999e-01 3.8659500000000002e-01
    68 0  7.9244750000000002e+00 1.5998340000000000e+00 4.7215590000000001e+00  2.8913200000000000e-01 1.5728000000000000e-01 3.7179600000000002e-01
    69 0  6.3423980000000002e+00 2.9908000000000001e-02 6.3727010000000002e+00  1.7768400000000001e-01 1.2161300000000000e-01 -4.0514499999999998e-01
    70 0  7.9623619999999997e+00 1.6547550000000000e+00 7.9285340000000000e+00  -1.1786199999999999e-01 -4.0408600000000000e-01 6.3491000000000006e-02
    71 0  6.3780039999999998e+00 5.6780999999999998e-02 9.5435449999999999e+00  -2.0726300000000000e-01 -6.6819499999999998e-01 -6.5481999999999999e-02
    72 0  7.9463119999999998e+00 1.6058880000000000e+00 1.1117932000000000e+01  3.2330300000000001e-01 7.2273000000000004e-02 2.5928899999999999e-01
    73 0  6.3237860000000001e+00 3.1819999999999999e+00 -2.3306000000000000e-02  9.0778199999999998e-01 1.8245500000000001e-01 2.2483000000000000e-01
    74 0  7.9121730000000001e+00 4.8007790000000004e+00 1.6218370000000000e+00  3.1203799999999998e-01 -3.1319999999999998e-01 -5.4125199999999996e-01
    75 0  6.3597450000000002e+00 3.1716120000000001e+00 3.1544279999999998e+00  -1.5915799999999999e-01 7.9923999999999995e-02 1.8453500000000000e-01
    76 0  7.9200109999999997e+00 4.7953939999999999e+00 4.7431390000000002e+00  4.9310799999999999e-01 4.2700000000000004e-03 2.5275100000000000e-01
    77 0  6.3519310000000004e+00 3.2349429999999999e+00 6.3127269999999998e+00  2.8322999999999998e-01 -7.0933299999999999e-01 4.5107799999999998e-01
    78 0  7.9619559999999998e+00 4.8119509999999996e+00 7.9114519999999997e+00  1.5234000000000000e-01 -2.7032200000000001e-01 3.0045800000000000e-01
    79 0  6.3572270000000000e+00 3.1864100000000000e+00 9.5141539999999996e+00  3.9428500000000000e-01 5.1933900000000000e-01 1.7022100000000001e-01
    80 0  7.9734259999999999e+00 4.8118600000000002e+00 1.1113084000000001e+01  -7.2401999999999994e-02 -8.1283200000000000e-01 2.7048699999999998e-01
    81 0  6.3367500000000003e+00 6.3654979999999997e+00 3.0019000000000001e-02  4.3705600000000000e-01 -4.9431500000000000e-01 -1.9958699999999999e-01
    82 0  7.9340479999999998e+00 7.9430470000000000e+00 1.6317320000000000e+00  5.8696999999999999e-02 8.8660000000000006e-03 -6.4054599999999995e-01
    83 0  6.3100050000000003e+00 6.3630209999999998e+00 3.1903940000000000e+00  -2.9545999999999999e-02 -1.3176700000000000e-01 -2.2169999999999998e-03
    84 0  7.8945100000000004e+00 7.9667469999999998e+00 4.7831880000000000e+00  6.0985000000000000e-01 2.6492100000000002e-01 -1.8533900000000000e-01
    85 0  6.3704380000000000e+00 6.3808639999999999e+00 6.3229870000000004e+00  -1.8471099999999999e-01 -3.5293999999999999e-02 3.7968000000000002e-01
    86 0  7.9781469999999999e+00 7.9755099999999999e+00 7.9399670000000002e+00  8.9300000000000004e-02 1.4898700000000001e-01 -1.5214000000000000e-01
    87 0  6.4302289999999998e+00 6.3742580000000002e+00 9.5142000000000007e+00  -5.9379599999999999e-01 -4.9439100000000002e-01 1.0828900000000000e-01
    88 0  7.9560259999999996e+00 7.8677619999999999e+00 1.1131271999999999e+01  5.6942199999999998e-01 1.2509280000000000e+00 1.9292200000000001e-01
    89 0  6.3362720000000001e+00 9.5172620000000006e+00 1.9501999999999999e-02  6.6456599999999999e-01 5.8139999999999997e-02 -4.5213799999999998e-01
    90 0  7.9475210000000001e+00 1.1121181000000000e+01 1.5449059999999999e+00  -1.2249900000000000e-01 -4.0904000000000003e-02 2.2736200000000001e-01
    91 0  6.3196610000000000e+00 9.5168060000000008e+00 3.1633179999999999e+00  7.5338000000000002e-02 4.1846299999999997e-01 1.6410700000000000e-01
    92 0  7.8931709999999997e+00 1.1156919000000000e+01 4.7118880000000001e+00  6.4091799999999999e-01 -6.2058000000000002e-02 4.4221500000000002e-01
    93 0  6.3254700000000001e+00 9.5908160000000002e+00 6.3347189999999998e+00  5.1423600000000003e-01 -4.4212099999999999e-01 2.6452999999999999e-01
    94 0  7.9214539999999998e+00 1.1199248000000001e+01 7.9331189999999996e+00  4.8212400000000000e-01 -6.1611300000000002e-01 1.4611499999999999e-01
    95 0  6.3902250000000000e+00 9.5287839999999999e+00 9.5283990000000003e+00  -4.5770000000000003e-03 3.3167400000000002e-01 1.9379700000000000e-01
    96 0  7.9643189999999997e+00 1.1101270000000000e+01 1.1106892999999999e+01  1.3120000000000000e-02 1.1216800000000000e-01 2.2301000000000001e-01
    97 0  9.5680300000000003e+00 -3.1753999999999998e-02 -7.0640000000000000e-03  -3.4554800000000002e-01 4.5341399999999998e-01 -6.9745000000000001e-02
    98 0  1.1164873999999999e+01 1.6485770000000000e+00 1.5906009999999999e+00  -3.0381799999999998e-01 -7.0868900000000001e-01 -8.2498000000000002e-02
    99 0  9.5340520000000009e+00 3.3777000000000001e-02 3.1301389999999998e+00  -3.1475000000000003e-02 -2.7884100000000001e-01 4.8733300000000002e-01
    100 0  1.1088877999999999e+01 1.6251800000000001e+00 4.7493509999999999e+00  5.1048199999999999e-01 -2.5646300000000000e-01 2.7289300000000000e-01
    101 0  9.5191929999999996e+00 4.1972000000000002e-02 6.3549590000000000e+00  -8.1979999999999997e-02 -8.7134000000000003e-02 -2.7735500000000002e-01
    102 0  1.1110766999999999e+01 1.6146929999999999e+00 7.9497910000000003e+00  7.9676999999999998e-02 -3.1311899999999998e-01 4.7414999999999999e-02
    103 0  9.5551820000000003e+00 1.1497000000000000e-02 9.5549260000000000e+00  -3.1873600000000002e-01 -1.6351000000000001e-02 -4.6246000000000002e-02
    104 0  1.1139154000000000e+01 1.6084639999999999e+00 1.1152417000000000e+01  -2.5619100000000000e-01 -3.6758700000000000e-01 -2.2369000000000000e-02
    105 0  9.5696929999999991e+00 3.2263799999999998e+00 2.6866999999999999e-02  -5.9483600000000003e-01 -5.4891199999999996e-01 -4.0176000000000001e-01
    106 0  1.1127051000000000e+01 4.7982410000000000e+00 1.6528350000000001e+00  3.4396300000000002e-01 2.9059999999999999e-02 -6.0926199999999997e-01
    107 0  9.5534850000000002e+00 3.2341120000000001e+00 3.1514989999999998e+00  -4.3114999999999998e-01 -4.0978799999999999e-01 5.6352899999999995e-01
    108 0  1.1130900000000000e+01 4.8052929999999998e+00 4.8089160000000000e+00  1.4302000000000000e-02 -1.3955699999999999e-01 -3.3700300000000000e-01
    109 0  9.5527639999999998e+00 3.2143880000000000e+00 6.3411090000000003e+00  -5.0968400000000003e-01 -6.0583999999999999e-02 -5.2581000000000003e-02
    110 0  1.1128818000000001e+01 4.7631690000000004e+00 7.9578879999999996e+00  2.8349600000000003e-01 4.3977300000000003e-01 1.1514000000000000e-02
    111 0  9.5644120000000008e+00 3.1941720000000000e+00 9.5393460000000001e+00  -4.7968600000000000e-01 1.7092299999999999e-01 1.4463799999999999e-01
    112 0  1.1151775000000001e+01 4.7719019999999999e+00 1.1164859000000000e+01  1.1968200000000000e-01 1.5786000000000000e-01 -4.5209800000000000e-01
    113 0  9.5694579999999991e+00 6.3196630000000003e+00 2.6776999999999999e-02  -2.2638500000000000e-01 7.4701200000000001e-01 -1.3398199999999999e-01
    114 0  1.1153197000000000e+01 7.9533940000000003e+00 1.6002970000000001e+00  -1.7679700000000001e-01 -2.2131300000000001e-01 -1.1167400000000000e-01
    115 0  9.5376899999999996e+00 6.4140730000000001e+00 3.2162060000000001e+00  -1.2143400000000000e-01 -4.7011100000000000e-01 -1.8053600000000000e-01
    116 0  1.1115069000000000e+01 8.0017820000000004e+00 4.7666230000000001e+00  -4.6150000000000002e-03 -3.4912199999999999e-01 4.3168099999999998e-01
    117 0  9.5855049999999995e+00 6.4113670000000003e+00 6.3792109999999997e+00  -6.3586100000000001e-01 -1.8546000000000001e-01 -3.8625399999999999e-01
    118 0  1.1161835000000000e+01 8.0033250000000002e+00 7.9523020000000004e+00  3.8816999999999997e-02 -4.9203999999999998e-01 -2.5767299999999999e-01
    119 0  9.6265830000000001e+00 6.3772580000000003e+00 9.5188690000000005e+00  -7.6598999999999995e-01 -2.4469800000000000e-01 3.1678200000000001e-01
    120 0  1.1200630000000000e+01 7.9063489999999996e+00 1.1113667000000000e+01  -5.5546399999999996e-01 4.0276400000000001e-01 3.2020500000000002e-01
    121 0  9.5511590000000002e+00 9.4806249999999999e+00 -4.3020000000000003e-03  -1.4163600000000001e-01 3.0116500000000002e-01 -1.3171900000000000e-01
    122 0  1.1123063000000000e+01 1.1123747000000000e+01 1.6033940000000000e+00  1.7872199999999999e-01 1.8770000000000000e-03 -1.9836000000000001e-01
    123 0  9.5276859999999992e+00 9.5464120000000001e+00 3.1524310000000000e+00  -1.4049500000000001e-01 3.0323099999999997e-01 4.1146700000000003e-01
    124 0  1.1115379000000001e+01 1.1180270000000000e+01 4.7692940000000004e+00  -1.7129400000000000e-01 -3.2739000000000001e-01 -1.0948200000000000e-01
    125 0  9.5222010000000008e+00 9.6033690000000007e+00 6.3401180000000004e+00  -1.4410999999999999e-01 -2.6255200000000001e-01 4.6191999999999997e-02
    126 0  1.1105987000000001e+01 1.1172152000000001e+01 7.9607419999999998e+00  1.0362900000000000e-01 -3.8924700000000001e-01 2.1900000000000001e-03
    127 0  9.5751919999999995e+00 9.5187840000000001e+00 9.5144149999999996e+00  -4.0905700000000000e-01 4.0977100000000000e-01 4.7935100000000003e-01
    128 0  1.1144000999999999e+01 1.1078181000000001e+01 1.1167192999999999e+01  -7.5484999999999997e-02 4.7231800000000002e-01 -5.0192000000000003e-01
 Energy
    -1.4316227371451100e+03
END_CFG

BEGIN_CFG
 Size
    128
 Supercell
    1.2721996000000001e+01 0.0000000000000000e+00 0.0000000000000000e+00
    0.0000000000000000e+00 1.2721996000000001e+01 0.0000000000000000e+00
    0.0000000000000000e+00 0.0000000000000000e+00 1.2721996000000001e+01
 AtomData:  id type       cartes_x      cartes_y      cartes_z           fx          fy          fz
    1 0  -2.1061000000000000e-02 -7.5510000000000004e-03 1.0881999999999999e-02  3.8815200000000000e-01 -2.2786000000000001e-02 -4.2042999999999997e-02
    2 0  1.6080939999999999e+00 1.5395970000000001e+00 1.6115189999999999e+00  -2.6150000000000001e-01 8.0277399999999999e-01 -3.1363000000000002e-01
    3 0  3.2088999999999999e-02 4.1060000000000003e-03 3.1626520000000000e+00  -1.0070770000000000e+00 -1.0256400000000000e-01 5.4922000000000004e-01
    4 0  1.5969670000000000e+00 1.5331630000000001e+00 4.8185010000000004e+00  -5.0572700000000004e-01 7.1175100000000002e-01 -6.0835399999999995e-01
    5 0  -2.3777000000000000e-02 -3.0304999999999999e-02 6.3892350000000002e+00  -1.1383799999999999e-01 6.9007700000000005e-01 -3.1615300000000002e-01
    6 0  1.5334930000000000e+00 1.5608280000000001e+00 7.9367710000000002e+00  8.4435899999999997e-01 2.1059000000000000e-01 6.5520599999999996e-01
    7 0  -3.5410999999999998e-02 -1.1377000000000000e-02 9.5868950000000002e+00  4.9793199999999999e-01 1.1468700000000000e-01 -4.2395899999999997e-01
    8 0  1.5504320000000000e+00 1.6130300000000000e+00 1.1147981000000000e+01  6.1067099999999996e-01 -7.6069900000000001e-01 -6.9247000000000003e-02
    9 0  -7.8449999999999995e-03 3.1914910000000001e+00 9.4020000000000006e-03  5.2424599999999999e-01 -2.5957799999999998e-01 1.5742800000000001e-01
    10 0  1.5750029999999999e+00 4.7593990000000002e+00 1.6171089999999999e+00  1.1331600000000000e-01 -2.1943299999999999e-01 -4.0801199999999999e-01
    11 0  -1.0678999999999999e-02 3.1980200000000001e+00 3.1821869999999999e+00  2.8221900000000000e-01 -5.1325600000000005e-01 3.2161000000000001e-01
    12 0  1.6184490000000000e+00 4.7183270000000004e+00 4.7704940000000002e+00  -9.7765400000000002e-01 5.2487700000000004e-01 5.0614800000000004e-01
    13 0  -3.5700999999999997e-02 3.1882910000000000e+00 6.3991360000000004e+00  3.8988299999999998e-01 -3.2375500000000001e-01 -6.4319800000000005e-01
    14 0  1.5882240000000001e+00 4.7455010000000000e+00 7.9667909999999997e+00  2.7934100000000001e-01 6.7710999999999993e-02 -2.7434999999999998e-01
    15 0  -1.0803999999999999e-02 3.1720570000000001e+00 9.5407080000000004e+00  2.9084199999999999e-01 2.3708499999999999e-01 2.6766499999999999e-01
    16 0  1.6190009999999999e+00 4.7388199999999996e+00 1.1136870000000000e+01  -1.7796999999999999e-01 4.3870199999999998e-01 -9.0866000000000002e-02
    17 0  2.3390999999999999e-02 6.3520950000000003e+00 -4.8399999999999997e-03  -6.4142000000000005e-02 1.4999999999999999e-02 2.8680699999999998e-01
    18 0  1.5871240000000000e+00 7.9021390000000000e+00 1.6106240000000001e+00  5.1081000000000001e-02 5.5591000000000002e-01 -2.3829400000000001e-01
    19 0  -2.5460000000000000e-02 6.3602340000000002e+00 3.2344529999999998e+00  3.4470699999999999e-01 -1.3041500000000000e-01 -6.1968100000000004e-01
    20 0  1.5395040000000000e+00 7.9470380000000000e+00 4.7734280000000000e+00  5.7667100000000004e-01 -1.7271000000000000e-01 5.6378600000000001e-01
    21 0  -2.4070000000000001e-02 6.3705390000000000e+00 6.3947680000000000e+00  6.2454900000000002e-01 4.2209999999999998e-02 -4.8497499999999999e-01
    22 0  1.6656450000000000e+00 7.9498790000000001e+00 7.9546650000000003e+00  -9.4175200000000003e-01 5.9519999999999998e-03 -1.6876500000000000e-01
    23 0  6.4294000000000004e-02 6.3770860000000003e+00 9.4997509999999998e+00  -3.3698600000000001e-01 -4.5406200000000002e-01 9.1899900000000001e-01
    24 0  1.6283170000000000e+00 7.9238039999999996e+00 1.1147676000000001e+01  1.8388199999999999e-01 7.3559999999999997e-03 -4.3065199999999998e-01
    25 0  3.2038999999999998e-02 9.5197190000000003e+00 -4.6917000000000000e-02  -3.0177599999999999e-01 -2.6960000000000000e-03 9.6974199999999999e-01
    26 0  1.5544020000000001e+00 1.1147323999999999e+01 1.6130350000000000e+00  5.9099900000000005e-01 -9.2548600000000003e-01 -5.0035399999999997e-01
    27 0  -2.8400999999999999e-02 9.5122990000000005e+00 3.2143150000000000e+00  3.9925600000000000e-01 8.7599400000000005e-01 -6.3270899999999997e-01
    28 0  1.5595699999999999e+00 1.1142339000000000e+01 4.7603660000000003e+00  2.2426699999999999e-01 -5.6572299999999998e-01 5.0864100000000001e-01
    29 0  -3.4979999999999998e-03 9.5695029999999992e+00 6.3833359999999999e+00  -4.6299000000000000e-02 -2.9197499999999998e-01 -1.6562299999999999e-01
    30 0  1.5613360000000001e+00 1.1126628000000000e+01 7.9958190000000000e+00  5.9838300000000000e-01 1.3428899999999999e-01 -4.3480500000000000e-01
    31 0  3.6232000000000000e-02 9.5320990000000005e+00 9.5302340000000001e+00  -1.4445200000000000e-01 2.4826000000000001e-02 2.5613999999999998e-01
    32 0  1.5988260000000001e+00 1.1078735000000000e+01 1.1136177999999999e+01  7.1744000000000002e-02 7.8644999999999998e-01 8.2202999999999998e-02
    33 0  3.2016380000000000e+00 -6.1710000000000003e-03 -2.5920000000000001e-03  -5.1590700000000000e-01 -1.7694900000000000e-01 6.4065999999999998e-02
    34 0  4.7898079999999998e+00 1.5669599999999999e+00 1.5683840000000000e+00  -5.0742900000000002e-01 -1.1273000000000000e-01 2.9286600000000002e-01
    35 0  3.1551890000000000e+00 -5.8609000000000001e-02 3.1920890000000002e+00  6.3509800000000005e-01 6.0837900000000000e-01 -1.1695500000000000e-01
    36 0  4.7658230000000001e+00 1.5925480000000001e+00 4.7698190000000000e+00  -1.4906900000000001e-01 -5.4216299999999995e-01 -1.7501400000000000e-01
    37 0  3.1697850000000001e+00 -1.7964000000000001e-02 6.3719859999999997e+00  2.5496999999999999e-02 2.1104999999999999e-01 3.4648200000000001e-01
    38 0  4.7909269999999999e+00 1.6129940000000000e+00 7.9727410000000001e+00  -6.6047599999999995e-01 -4.0857599999999999e-01 -5.1866299999999999e-01
    39 0  3.2136879999999999e+00 -6.6610000000000003e-03 9.5972930000000005e+00  -6.4934999999999998e-01 5.0049999999999997e-02 -8.3812600000000004e-01
    40 0  4.7607850000000003e+00 1.6233880000000001e+00 1.1111257000000000e+01  9.3745999999999996e-02 -8.5032799999999997e-01 2.8215400000000002e-01
    41 0  3.2104560000000002e+00 3.1307790000000000e+00 -1.9890000000000001e-02  -8.8155200000000000e-01 5.9480500000000003e-01 5.6018400000000002e-01
    42 0  4.7241580000000001e+00 4.7208199999999998e+00 1.5886510000000000e+00  5.5226200000000003e-01 6.4157900000000001e-01 1.1489400000000000e-01
    43 0  3.1566730000000001e+00 3.1689539999999998e+00 3.2063449999999998e+00  2.6179200000000002e-01 -7.0276300000000003e-01 -5.3167100000000000e-01
    44 0  4.7542359999999997e+00 4.7024710000000001e+00 4.7962889999999998e+00  3.0103000000000001e-02 1.2159080000000000e+00 -6.5935299999999997e-01
    45 0  3.1709730000000000e+00 3.1586029999999998e+00 6.3391019999999996e+00  -1.1015700000000000e-01 -2.2952400000000001e-01 8.7465199999999999e-01