BEGIN_CFG
 SuperCell
         3.180500      0.000000      0.000000
         0.000000      3.180500      0.000000
         1.590250      1.590250      1.590250
 AtomData:    id    type    cartes_x  cartes_y  cartes_z
         1     0         0.000000      0.000000      0.000000
 PlusStress:    xx    yy    zz    yz    xz    xy
         -0.00570     -0.00570     -0.00570     0.00000     0.00000     0.00000
END_CFG

BEGIN_CFG
 SuperCell
         3.180500      0.000000      0.000000
         0.000000      3.180500      0.000000
         1.590250      1.590250      1.590250
 AtomData:    id    type    cartes_x  cartes_y  cartes_z    fx  fy  fz
         1     0         0.000000      0.000000      0.000000       0.000000    0.000000    0.000000
END_CFG

BEGIN_CFG
 SuperCell
         3.180500      0.000000      0.000000
         0.000000      3.180500      0.000000
         1.590250      1.590250      1.590250
 AtomData:    id    type    cartes_x  cartes_y  cartes_z
         1     0         0.000000      0.000000      0.000000
 Energy
        -11.194835125297
END_CFG

BEGIN_CFG
 SuperCell
         3.151633      0.000000      0.000000
        -0.050505      3.180501      0.000000
         1.401238      1.611088      1.583668
 AtomData:    id    type    cartes_x  cartes_y  cartes_z    fx  fy  fz
         1     0         0.000000      0.000000      0.000000       0.000000    0.000000    0.000000
 Energy
        -11.122702777842
 PlusStress:    xx    yy    zz    yz    xz    xy
        0.59517    0.52420    0.59329     -0.13198    1.41749    0.18694
END_CFG

BEGIN_CFG
 SuperCell
         3.151633      0.000000      0.000000
        -0.050505      3.299971      0.000000
         1.401238      1.611088      1.583668
 AtomData:    id    type    cartes_x  cartes_y  cartes_z    fx  fy  fz
         1     0         0.000000      0.000000      0.000000       0.000000    0.000000    0.000000
 Energy
        -11.102776969505
 PlusStress:    xx    yy    zz    yz    xz    xy
         -0.14838     -1.22862     -0.17746    0.42924    1.24628    0.31062
END_CFG

BEGIN_CFG
 SuperCell
        12.721996      0.000000      0.000000
         0.000000     12.721996      0.000000
         0.000000      0.000000     12.721996
 AtomData:    id    type    cartes_x  cartes_y  cartes_z    fx  fy  fz
         1     0         0.007439     -0.021908      0.033021      -0.094299    0.219267   -0.320259
         2     0         1.617275      1.561761      1.603917      -0.335232    0.328949   -0.180411
         3     0        -0.005995      0.017157      3.194061      -0.184012   -0.295932   -0.025624
         4     0         1.587240      1.520996      4.803125      -0.201979    0.755997   -0.222275
         5     0        -0.023241     -0.012902      6.393688      -0.046534    0.381694   -0.354555
         6     0         1.548505      1.582916      7.957862       0.488220   -0.082154    0.239333
         7     0        -0.033634     -0.015494      9.569136       0.322965    0.144520   -0.072037
         8     0         1.552589      1.594543     11.135410       0.455155   -0.275136    0.117605
         9     0         0.008137      3.205691     -0.006910       0.183905   -0.334245    0.368165
        10     0         1.588006      4.748083      1.617755      -0.077923   -0.082621   -0.358530
        11     0         0.005984      3.188456      3.194685      -0.010069   -0.250679    0.084300
        12     0         1.599446      4.703281      4.777944      -0.508496    0.658307    0.319695
        13     0        -0.016349      3.174993      6.378813       0.123025   -0.132340   -0.261656
        14     0         1.582079      4.757909      7.963558       0.241267   -0.102934   -0.186170
        15     0        -0.034738      3.168950      9.539510       0.581815    0.245967    0.179791
        16     0         1.614510      4.774917     11.117170      -0.098593   -0.148710    0.095203
        17     0         0.052981      6.341192      0.009806      -0.442517    0.126431    0.024380
        18     0         1.591453      7.914824      1.587368      -0.014313    0.332189    0.055327
        19     0        -0.001140      6.361697      3.236838      -0.127037   -0.102511   -0.539767
        20     0         1.556840      7.932000      4.773290       0.206365    0.108364    0.454322
        21     0         0.011117      6.352381      6.394319       0.004911    0.257075   -0.368349
        22     0         1.652854      7.936378      7.961950      -0.554452    0.243538   -0.260148
        23     0         0.064190      6.374380      9.512938      -0.418768   -0.360177    0.517458
        24     0         1.647706      7.944387     11.120363      -0.135522   -0.171808    0.029041
        25     0         0.021210      9.504314     -0.021151       0.035323    0.201895    0.468205
        26     0         1.565389     11.122167      1.614189       0.262430   -0.348808   -0.340128
        27     0        -0.015790      9.511962      3.202581       0.106207    0.636619   -0.328677
        28     0         1.576615     11.131322      4.790420      -0.053732   -0.333426   -0.034957
        29     0        -0.020958      9.568967      6.365261       0.293029   -0.207558    0.029007
        30     0         1.571963     11.127841      7.967264       0.310172   -0.019569    0.035336
        31     0         0.033490      9.535974      9.531415      -0.120787    0.048924    0.185974
        32     0         1.601455     11.116054     11.133213       0.007499    0.046587    0.065323
        33     0         3.184567     -0.020861      0.005851      -0.177895    0.168776   -0.078162
        34     0         4.794113      1.595969      1.591148      -0.473958   -0.499805   -0.111691
        35     0         3.151557     -0.042718      3.181233       0.527178    0.324621    0.121251
        36     0         4.773218      1.581699      4.795158      -0.246390   -0.236309   -0.443043
        37     0         3.173827     -0.023961      6.395738       0.010252    0.306544   -0.133494
        38     0         4.790793      1.641210      7.974723      -0.501736   -0.697242   -0.327775
        39     0         3.170547     -0.003309      9.568617       0.114108    0.046546   -0.324774
        40     0         4.759252      1.603952     11.140723       0.035144   -0.380006   -0.280326
        41     0         3.190875      3.158351     -0.028503      -0.479944    0.080878    0.528075
        42     0         4.719537      4.724183      1.595835       0.500632    0.512199    0.053142
        43     0         3.175066      3.134311      3.205306      -0.014283   -0.042654   -0.332332
        44     0         4.730688      4.730515      4.777997       0.317085    0.610939   -0.378594
        45     0         3.158971      3.158976      6.355150       0.124658   -0.179917    0.415275
        46     0         4.776133      4.769279      7.900785       0.050033    0.095296    0.645505
        47     0         3.168113      3.170344      9.557716       0.025844    0.094566   -0.473133
        48     0         4.785871      4.748714     11.110391       0.054861    0.328551    0.054847
        49     0         3.200372      6.330332      0.002327      -0.198304    0.086456   -0.089146
        50     0         4.724572      7.930524      1.610585       0.294896   -0.084708   -0.043958
        51     0         3.112506      6.311521      3.194313       0.834196    0.343840    0.004268
        52     0         4.703658      7.958038      4.789414       0.527967   -0.346423   -0.280605
        53     0         3.172922      6.342239      6.368084       0.115154    0.033195   -0.135918
        54     0         4.849081      7.940721      7.949545      -0.843187    0.191821   -0.082643
        55     0         3.248312      6.343877      9.509713      -0.276607    0.049446    0.413061
        56     0         4.838551      7.904887     11.157536      -0.764379    0.466946   -0.572966
        57     0         3.210203      9.522739     -0.025408      -0.538226   -0.069599    0.373289
        58     0         4.752832     11.108085      1.555621       0.024100    0.142158    0.566024
        59     0         3.142088      9.508990      3.193644       0.138285    0.318309   -0.159281
        60     0         4.745470     11.129980      4.779818      -0.028673    0.051124   -0.346044
        61     0         3.177053      9.517808      6.384457      -0.117687    0.349562   -0.177417
        62     0         4.787553     11.148552      7.945881      -0.321309   -0.036320    0.426577
        63     0         3.214257      9.518913      9.529407       0.134034    0.228772    0.215567
        64     0         4.782490     11.122106     11.135312       0.061514    0.017499   -0.390358
        65     0         6.346437      0.003344     -0.039837       0.430981   -0.140852    0.369014
        66     0         7.972761      1.590729      1.567188      -0.210581    0.222814   -0.245547
        67     0         6.345182     -0.015375      3.129532      -0.072546    0.158687    0.386595
        68     0         7.924475      1.599834      4.721559       0.289132    0.157280    0.371796
        69     0         6.342398      0.029908      6.372701       0.177684    0.121613   -0.405145
        70     0         7.962362      1.654755      7.928534      -0.117862   -0.404086    0.063491
        71     0         6.378004      0.056781      9.543545      -0.207263   -0.668195   -0.065482
        72     0         7.946312      1.605888     11.117932       0.323303    0.072273    0.259289
        73     0         6.323786      3.182000     -0.023306       0.907782    0.182455    0.224830
        74     0         7.912173      4.800779      1.621837       0.312038   -0.313200   -0.541252
        75     0         6.359745      3.171612      3.154428      -0.159158    0.079924    0.184535
        76     0         7.920011      4.795394      4.743139       0.493108    0.004270    0.252751
        77     0         6.351931      3.234943      6.312727       0.283230   -0.709333    0.451078
        78     0         7.961956      4.811951      7.911452       0.152340   -0.270322    0.300458
        79     0         6.357227      3.186410      9.514154       0.394285    0.519339    0.170221
        80     0         7.973426      4.811860     11.113084      -0.072402   -0.812832    0.270487
        81     0         6.336750      6.365498      0.030019       0.437056   -0.494315   -0.199587
        82     0         7.934048      7.943047      1.631732       0.058697    0.008866   -0.640546
        83     0         6.310005      6.363021      3.190394      -0.029546   -0.131767   -0.002217
        84     0         7.894510      7.966747      4.783188       0.609850    0.264921   -0.185339
        85     0         6.370438      6.380864      6.322987      -0.184711   -0.035294    0.379680
        86     0         7.978147      7.975510      7.939967       0.089300    0.148987   -0.152140
        87     0         6.430229      6.374258      9.514200      -0.593796   -0.494391    0.108289
        88     0         7.956026      7.867762     11.131272       0.569422    1.250928    0.192922
        89     0         6.336272      9.517262      0.019502       0.664566    0.058140   -0.452138
        90     0         7.947521     11.121181      1.544906      -0.122499   -0.040904    0.227362
        91     0         6.319661      9.516806      3.163318       0.075338    0.418463    0.164107
        92     0         7.893171     11.156919      4.711888       0.640918   -0.062058    0.442215
        93     0         6.325470      9.590816      6.334719       0.514236   -0.442121    0.264530
        94     0         7.921454     11.199248      7.933119       0.482124   -0.616113    0.146115
        95     0         6.390225      9.528784      9.528399      -0.004577    0.331674    0.193797
        96     0         7.964319     11.101270     11.106893       0.013120    0.112168    0.223010
        97     0         9.568030     -0.031754     -0.007064      -0.345548    0.453414   -0.069745
        98     0        11.164874      1.648577      1.590601      -0.303818   -0.708689   -0.082498
        99     0         9.534052      0.033777      3.130139      -0.031475   -0.278841    0.487333
       100     0        11.088878      1.625180      4.749351       0.510482   -0.256463    0.272893
       101     0         9.519193      0.041972      6.354959      -0.081980   -0.087134   -0.277355
       102     0        11.110767      1.614693      7.949791       0.079677   -0.313119    0.047415
       103     0         9.555182      0.011497      9.554926      -0.318736   -0.016351   -0.046246
       104     0        11.139154      1.608464     11.152417      -0.256191   -0.367587   -0.022369
       105     0         9.569693      3.226380      0.026867      -0.594836   -0.548912   -0.401760
       106     0        11.127051      4.798241      1.652835       0.343963    0.029060   -0.609262
       107     0         9.553485      3.234112      3.151499      -0.431150   -0.409788    0.563529
       108     0        11.130900      4.805293      4.808916       0.014302   -0.139557   -0.337003
       109     0         9.552764      3.214388      6.341109      -0.509684   -0.060584   -0.052581
       110     0        11.128818      4.763169      7.957888       0.283496    0.439773    0.011514
       111     0         9.564412      3.194172      9.539346      -0.479686    0.170923    0.144638
       112     0        11.151775      4.771902     11.164859       0.119682    0.157860   -0.452098
       113     0         9.569458      6.319663      0.026777      -0.226385    0.747012   -0.133982
       114     0        11.153197      7.953394      1.600297      -0.176797   -0.221313   -0.111674
       115     0         9.537690      6.414073      3.216206      -0.121434   -0.470111   -0.180536
       116     0        11.115069      8.001782      4.766623      -0.004615   -0.349122    0.431681
       117     0         9.585505      6.411367      6.379211      -0.635861   -0.185460   -0.386254
       118     0        11.161835      8.003325      7.952302       0.038817   -0.492040   -0.257673
       119     0         9.626583      6.377258      9.518869      -0.765990   -0.244698    0.316782
       120     0        11.200630      7.906349     11.113667      -0.555464    0.402764    0.320205
       121     0         9.551159      9.480625     -0.004302      -0.141636    0.301165   -0.131719
       122     0        11.123063     11.123747      1.603394       0.178722    0.001877   -0.198360
       123     0         9.527686      9.546412      3.152431      -0.140495    0.303231    0.411467
       124     0        11.115379     11.180270      4.769294      -0.171294   -0.327390   -0.109482
       125     0         9.522201      9.603369      6.340118      -0.144110   -0.262552    0.046192
       126     0        11.105987     11.172152      7.960742       0.103629   -0.389247    0.002190
       127     0         9.575192      9.518784      9.514415      -0.409057    0.409771    0.479351
       128     0        11.144001     11.078181     11.167193      -0.075485    0.472318   -0.501920
 Energy
      -1431.622737145110
END_CFG

BEGIN_CFG
 Size
    128
 SuperCell
        12.721996      0.000000      0.000000
         0.000000     12.721996      0.000000
         0.000000      0.000000     12.721996
 AtomData:    id    type    cartes_x  cartes_y  cartes_z    fx  fy  fz
         1     0        -0.021061     -0.007551      0.010882       0.388152   -0.022786   -0.042043
         2     0         1.608094      1.539597      1.611519      -0.261500    0.802774   -0.313630
         3     0         0.032089      0.004106      3.162652      -1.007077   -0.102564    0.549220
         4     0         1.596967      1.533163      4.818501      -0.505727    0.711751   -0.608354
         5     0        -0.023777     -0.030305      6.389235      -0.113838    0.690077   -0.316153
         6     0         1.533493      1.560828      7.936771       0.844359    0.210590    0.655206
         7     0        -0.035411     -0.011377      9.586895       0.497932    0.114687   -0.423959
         8     0         1.550432      1.613030     11.147981       0.610671   -0.760699   -0.069247
         9     0        -0.007845      3.191491      0.009402       0.524246   -0.259578    0.157428
        10     0         1.575003      4.759399      1.617109       0.113316   -0.219433   -0.408012
        11     0        -0.010679      3.198020      3.182187       0.282219   -0.513256    0.321610
        12     0         1.618449      4.718327      4.770494      -0.977654    0.524877    0.506148
        13     0        -0.035701      3.188291      6.399136       0.389883   -0.323755   -0.643198
        14     0         1.588224      4.745501      7.966791       0.279341    0.067711   -0.274350
        15     0        -0.010804      3.172057      9.540708       0.290842    0.237085    0.267665
        16     0         1.619001      4.738820     11.136870      -0.177970    0.438702   -0.090866
        17     0         0.023391      6.352095     -0.004840      -0.064142    0.015000    0.286807
        18     0         1.587124      7.902139      1.610624       0.051081    0.555910   -0.238294
        19     0        -0.025460      6.360234      3.234453       0.344707   -0.130415   -0.619681
        20     0         1.539504      7.947038      4.773428       0.576671   -0.172710    0.563786
        21     0        -0.024070      6.370539      6.394768       0.624549    0.042210   -0.484975
        22     0         1.665645      7.949879      7.954665      -0.941752    0.005952   -0.168765
        23     0         0.064294      6.377086      9.499751      -0.336986   -0.454062    0.918999
        24     0         1.628317      7.923804     11.147676       0.183882    0.007356   -0.430652
        25     0         0.032039      9.519719     -0.046917      -0.301776   -0.002696    0.969742
        26     0         1.554402     11.147324      1.613035       0.590999   -0.925486   -0.500354
        27     0        -0.028401      9.512299      3.214315       0.399256    0.875994   -0.632709
        28     0         1.559570     11.142339      4.760366       0.224267   -0.565723    0.508641
        29     0        -0.003498      9.569503      6.383336      -0.046299   -0.291975   -0.165623
        30     0         1.561336     11.126628      7.995819       0.598383    0.134289   -0.434805
        31     0         0.036232      9.532099      9.530234      -0.144452    0.024826    0.256140
        32     0         1.598826     11.078735     11.136178       0.071744    0.786450    0.082203
        33     0         3.201638     -0.006171     -0.002592      -0.515907   -0.176949    0.064066
        34     0         4.789808      1.566960      1.568384      -0.507429   -0.112730    0.292866
        35     0         3.155189     -0.058609      3.192089       0.635098    0.608379   -0.116955
        36     0         4.765823      1.592548      4.769819      -0.149069   -0.542163   -0.175014
        37     0         3.169785     -0.017964      6.371986       0.025497    0.211050    0.346482
        38     0         4.790927      1.612994      7.972741      -0.660476   -0.408576   -0.518663
        39     0         3.213688     -0.006661      9.597293      -0.649350    0.050050   -0.838126
        40     0         4.760785      1.623388     11.111257       0.093746   -0.850328    0.282154
        41     0         3.210456      3.130779     -0.019890      -0.881552    0.594805    0.560184
        42     0         4.724158      4.720820      1.588651       0.552262    0.641579    0.114894
        43     0         3.156673      3.168954      3.206345       0.261792   -0.702763   -0.531671
        44     0         4.754236      4.702471      4.796289       0.030103    1.215908   -0.659353
        45     0         3.170973      3.158603      6.339102      -0.110157   -0.229524    0.874652
        46     0         4.816754      4.774377      7.917868      -0.570319    0.021070    0.449889
        47     0         3.193646      3.178327      9.569094      -0.427633   -0.020025   -0.797695
        48     0         4.776345      4.769436     11.118345       0.279475    0.037332   -0.014442
        49     0         3.208982      6.337120     -0.001623      -0.407519   -0.057459   -0.040929
        50     0         4.734767      7.952697      1.570057       0.211364   -0.563344    0.664352
        51     0         3.126128      6.312538      3.203729       0.735521    0.418238   -0.156585
        52     0         4.726979      7.955193      4.813077       0.266130   -0.350722   -0.681240
        53     0         3.158774      6.320718      6.368681       0.364444    0.415558   -0.211455
        54     0         4.797970      7.956578      7.951099      -0.016984    0.031494   -0.137437
        55     0         3.231059      6.354381      9.485093      -0.094847   -0.123070    0.906082
        56     0         4.860910      7.915175     11.139391      -1.295452    0.442827   -0.432675
        57     0         3.202504      9.523447     -0.016765      -0.530208   -0.110383    0.285730
        58     0         4.755686     11.107049      1.543729      -0.034160    0.180248    0.879448
        59     0         3.163152      9.489159      3.208604      -0.165271    0.636439   -0.416790
        60     0         4.749698     11.132682      4.824537      -0.139980    0.006788   -1.326223
        61     0         3.176878      9.537608      6.367981      -0.189781    0.083872    0.083682
        62     0         4.804398     11.147761      7.909892      -0.812267   -0.015443    1.232493
        63     0         3.201251      9.539678      9.530361       0.401933   -0.051266    0.269505
        64     0         4.784782     11.120676     11.161151       0.144521    0.005744   -0.884905
        65     0         6.376651     -0.012685     -0.039312      -0.003776    0.035323    0.466945
        66     0         7.960398      1.612444      1.592412      -0.154588   -0.113617   -0.692954
        67     0         6.338629     -0.006218      3.138148       0.056593    0.050168    0.228620
        68     0         7.920463      1.642427      4.732339       0.398487   -0.517464    0.230934
        69     0         6.360054     -0.005055      6.363212      -0.086537    0.932308   -0.355055
        70     0         7.949474      1.652888      7.922245       0.012034   -0.431216    0.205266
        71     0         6.358821      0.050700      9.545397       0.126226   -0.840696   -0.112399
        72     0         7.926430      1.584020     11.110769       0.684633    0.496631    0.364555
        73     0         6.309751      3.142715     -0.021324       1.329569    0.851251    0.193035
        74     0         7.946541      4.795569      1.643501      -0.219029   -0.323357   -1.073132
        75     0         6.347521      3.175841      3.151941      -0.091122   -0.003205    0.125627
        76     0         7.897761      4.774620      4.739330       0.909886    0.398559    0.441513
        77     0         6.335489      3.206915      6.323436       0.587573   -0.380558    0.446175
        78     0         7.974694      4.832324      7.907864      -0.013905   -0.610063    0.424895
        79     0         6.335626      3.156933      9.516535       0.917420    1.097345    0.143055
        80     0         7.984191      4.812046     11.120342      -0.237381   -0.922171    0.212825
        81     0         6.359292      6.375381      0.010321       0.220361   -0.829134    0.020225
        82     0         7.924275      7.945919      1.607402       0.271200   -0.091842   -0.332515
        83     0         6.325900      6.354906      3.180180      -0.294140    0.086692    0.120949
        84     0         7.899782      8.000142      4.775222       0.542256   -0.277114   -0.146488
        85     0         6.377697      6.382238      6.337916      -0.320840    0.015150    0.206412
        86     0         7.968136      7.964772      7.947846       0.230722    0.398349   -0.322887
        87     0         6.412755      6.387734      9.537486      -0.321782   -0.781354   -0.292885
        88     0         7.969058      7.888234     11.103622       0.525329    1.212368    0.682469
        89     0         6.328305      9.502070      0.014078       0.997602    0.395371   -0.584361
        90     0         7.960136     11.095547      1.548005      -0.464800    0.516645    0.263758
        91     0         6.318904      9.533116      3.139320      -0.013834    0.192704    0.606329
        92     0         7.876763     11.176602      4.708836       1.050417   -0.258569    0.496273
        93     0         6.337311      9.613527      6.353602       0.498489   -1.077842   -0.047482
        94     0         7.899730     11.189935      7.947601       1.042270   -0.525164   -0.035135
        95     0         6.410912      9.519300      9.516335      -0.361382    0.621433    0.472614
        96     0         7.984728     11.140443     11.138665      -0.316899   -0.599014   -0.324612
        97     0         9.559452     -0.026888      0.003571      -0.279793    0.513359   -0.364946
        98     0        11.118800      1.610172      1.615350       0.582686   -0.196667   -0.583794
        99     0         9.535411      0.042584      3.093182      -0.169000   -0.581064    1.356496
       100     0        11.093794      1.603751      4.735323       0.516083    0.057764    0.609213
       101     0         9.522388      0.061901      6.354888      -0.127266   -0.483863   -0.344554
       102     0        11.106363      1.627270      7.984216       0.164568   -0.581138   -0.535464
       103     0         9.531496     -0.009897      9.537610      -0.042925    0.434088    0.166475
       104     0        11.143153      1.586881     11.149476      -0.495244   -0.020380   -0.024632
       105     0         9.615585      3.216915      0.023821      -1.451745   -0.572212   -0.506674
       106     0        11.134574      4.776729      1.613050       0.249104    0.380486   -0.013746
       107     0         9.569730      3.228402      3.144622      -0.714925   -0.341113    0.839050
       108     0        11.135438      4.812835      4.797719      -0.165148   -0.367195   -0.178854
       109     0         9.546938      3.213489      6.361837      -0.354541    0.088373   -0.455941
       110     0        11.141638      4.793789      7.959238       0.036845   -0.054916    0.022306
       111     0         9.576835      3.188359      9.517251      -0.754809    0.327256    0.612520
       112     0        11.155688      4.769388     11.165796       0.077327    0.204180   -0.594392
       113     0         9.554359      6.327594      0.047710       0.063809    0.771450   -0.505927
       114     0        11.161552      7.973806      1.646635      -0.447761   -0.576894   -1.077354
       115     0         9.531629      6.392034      3.209127      -0.120853   -0.100059   -0.089100
       116     0        11.131209      8.001334      4.727603      -0.457604   -0.326386    1.298568
       117     0         9.584599      6.423057      6.351382      -0.740986   -0.380300   -0.051630
       118     0        11.157008      7.959769      7.989822       0.124374    0.346360   -1.019517
       119     0         9.608720      6.387549      9.529440      -0.609649   -0.519472    0.267528
       120     0        11.177320      7.927139     11.104438      -0.232479    0.159428    0.665862
       121     0         9.562804      9.513436      0.018992      -0.221440   -0.166909   -0.595278
       122     0        11.124243     11.121723      1.586488       0.225081    0.018640   -0.001656
       123     0         9.498349      9.543966      3.143926       0.315407    0.408878    0.741431
       124     0        11.103717     11.167081      4.780800      -0.156828   -0.173027   -0.312715
       125     0         9.547637      9.566236      6.364685      -0.419260    0.294731   -0.275211
       126     0        11.107012     11.167453      7.969087       0.107419   -0.349473   -0.219039
       127     0         9.605106      9.542632      9.516825      -0.961768    0.047722    0.506877
       128     0        11.132525     11.098371     11.134796       0.109415    0.232696    0.087283
 Energy
      -1430.774140139722
END_CFG

