BEGIN_CFG
 Size
    52
 Supercell
    2.8452910000000003e+02 0.0000000000000000e+00 0.0000000000000000e+00
    0.0000000000000000e+00 4.0250600100000003e+02 0.0000000000000000e+00
    0.0000000000000000e+00 0.0000000000000000e+00 2.1763022000000001e+02
 AtomData:  id type       cartes_x      cartes_y      cartes_z           fx          fy          fz      charge
    1 4  1.3387775400000001e+02 2.0035377700000001e+02 1.0881511000000000e+02  -2.5248244300000000e-01 7.2505141499999995e-02 0.0000000000000000e+00    2.4547600000000000e-01
    2 1  1.3270995400000001e+02 2.0163009700000001e+02 1.0881511000000000e+02  3.3578622299999999e-01 -2.1957230799999999e-01 0.0000000000000000e+00    -3.5288199999999997e-01
    3 0  1.3520524399999999e+02 2.0147803700000000e+02 1.0881511000000000e+02  -1.2341300700000001e-01 -2.9464855400000001e-01 0.0000000000000000e+00    -1.4996300000000001e-01
    4 5  1.3329867400000001e+02 2.0285970699999999e+02 1.0881511000000000e+02  3.1161784199999998e-01 2.8127881100000002e-01 0.0000000000000000e+00    1.1950600000000000e-01
    5 2  1.3473451399999999e+02 2.0276473700000000e+02 1.0881511000000000e+02  -5.5433008900000003e-01 -8.3818000500000003e-02 0.0000000000000000e+00    -1.1304400000000001e-01
    6 3  1.3538722400000000e+02 2.0362698700000001e+02 1.0881511000000000e+02  -1.5426625900000000e-03 4.1651889800000001e-02 0.0000000000000000e+00    1.0940800000000001e-01
    7 6  1.3250792400000000e+02 2.0415624700000001e+02 1.0881511000000000e+02  3.8566564599999997e-01 -1.0387261400000000e-01 0.0000000000000000e+00    -2.3008999999999999e-01
    8 8  1.3333698400000000e+02 2.0545091700000000e+02 1.0881511000000000e+02  -5.1884885000000003e-01 -1.5683736300000001e-01 0.0000000000000000e+00    -1.9092600000000001e-01
    9 9  1.3185127399999999e+02 2.0414415700000001e+02 1.0968600000000001e+02  -1.2598411100000001e-01 1.1107170600000001e-01 1.4655294599999999e-01    1.1269000000000000e-01
    10 9  1.3185127399999999e+02 2.0414415700000001e+02 1.0794422000000000e+02  -1.2598411100000001e-01 1.1107170600000001e-01 -1.4655294599999999e-01    1.1269000000000000e-01
    11 8  1.3246033399999999e+02 2.0671178699999999e+02 1.0881511000000000e+02  6.1500815099999995e-01 -6.2734945200000003e-02 0.0000000000000000e+00    -1.7916099999999999e-01
    12 9  1.3398967400000001e+02 2.0546490700000001e+02 1.0794109000000000e+02  1.0438683500000000e-01 1.0284417200000000e-02 -1.5683736300000001e-01    1.0097000000000000e-01
    13 9  1.3398967400000001e+02 2.0546490700000001e+02 1.0968913000000001e+02  1.0438683500000000e-01 1.0284417200000000e-02 1.5683736300000001e-01    1.0097000000000000e-01
    14 8  1.3328985399999999e+02 2.0800376700000001e+02 1.0881511000000000e+02  -6.7208666699999997e-01 -2.0054613600000000e-02 0.0000000000000000e+00    -1.7161000000000001e-01
    15 9  1.3180531400000001e+02 2.0669983700000000e+02 1.0968747999999999e+02  -1.1107170600000001e-01 -2.0568834500000002e-03 1.8203418499999999e-01    9.1628000000000001e-02
    16 9  1.3180531400000001e+02 2.0669983700000000e+02 1.0794274000000000e+02  -1.1107170600000001e-01 -2.0568834500000002e-03 -1.8203418499999999e-01    9.1628000000000001e-02
    17 8  1.3241377399999999e+02 2.0926449700000001e+02 1.0881511000000000e+02  5.7489892399999998e-01 9.2045534299999995e-02 0.0000000000000000e+00    -1.7809700000000001e-01
    18 9  1.3394530399999999e+02 2.0801587699999999e+02 1.0794297000000000e+02  1.0541527700000000e-01 1.0798638100000001e-02 -1.8306262700000001e-01    9.1221999999999998e-02
    19 9  1.3394530399999999e+02 2.0801587699999999e+02 1.0968725000000001e+02  1.0541527700000000e-01 1.0798638100000001e-02 1.8306262700000001e-01    9.1221999999999998e-02
    20 7  1.3324170400000000e+02 2.1055447699999999e+02 1.0881511000000000e+02  -2.7202283599999999e-01 -1.6917866400000001e-01 0.0000000000000000e+00    -3.1919700000000001e-01
    21 9  1.3175827400000000e+02 2.0925760700000001e+02 1.0968707999999999e+02  -9.5645080300000004e-02 -5.0907865300000001e-02 1.6352223399999999e-01    9.3276999999999999e-02
    22 9  1.3175827400000000e+02 2.0925760700000001e+02 1.0794314000000000e+02  -9.5645080300000004e-02 -5.0907865300000001e-02 -1.6352223399999999e-01    9.3276999999999999e-02
    23 9  1.3388072399999999e+02 2.1061514700000001e+02 1.0969662000000000e+02  8.7931767399999999e-02 -1.5426625899999999e-02 9.7701963800000000e-02    1.0289200000000000e-01
    24 9  1.3259498400000001e+02 2.1143229700000001e+02 1.0881511000000000e+02  -4.3708773300000003e-02 1.1158592700000000e-01 0.0000000000000000e+00    1.0025100000000001e-01
    25 9  1.3388072399999999e+02 2.1061514700000001e+02 1.0793360000000000e+02  8.7931767399999999e-02 -1.5426625899999999e-02 -9.7701963800000000e-02    1.0289200000000000e-01
    26 4  1.3780675400000001e+02 2.0227587700000001e+02 1.0881511000000000e+02  3.0441875000000002e-01 -7.0448258099999994e-02 0.0000000000000000e+00    2.4272600000000000e-01
    27 0  1.3658877400000000e+02 2.0103106700000001e+02 1.0881511000000000e+02  2.3242783000000000e-01 7.3019362399999996e-02 0.0000000000000000e+00    -2.1740999999999999e-01
    28 1  1.3908571400000000e+02 2.0111776699999999e+02 1.0881511000000000e+02  -1.7792041800000000e-01 3.7023902099999999e-02 0.0000000000000000e+00    -3.0501200000000001e-01
    29 5  1.3716520399999999e+02 1.9977783700000001e+02 1.0881511000000000e+02  3.5018440699999998e-01 -4.7822540200000002e-01 0.0000000000000000e+00    1.0510000000000000e-01
    30 2  1.3860528400000001e+02 1.9984401700000001e+02 1.0881511000000000e+02  -2.4168380500000000e-01 4.2680331500000002e-01 0.0000000000000000e+00    -7.7214000000000005e-02
    31 3  1.3925714400000001e+02 1.9898060699999999e+02 1.0881511000000000e+02  -8.4846442199999997e-02 -5.9135399100000000e-02 0.0000000000000000e+00    1.0021099999999999e-01
    32 6  1.3640956399999999e+02 1.9845502700000000e+02 1.0881511000000000e+02  3.6972480000000002e-01 3.0390452899999998e-01 0.0000000000000000e+00    -2.4584000000000000e-01
    33 8  1.3725956400000001e+02 1.9717280700000001e+02 1.0881511000000000e+02  -4.2011844399999998e-01 2.0671678600000001e-01 0.0000000000000000e+00    -1.9582200000000000e-01
    34 9  1.3575868399999999e+02 1.9844487699999999e+02 1.0794038999999999e+02  -2.0825944900000001e-01 -1.0438683500000000e-01 -1.1518547300000000e-01    1.2762200000000001e-01
    35 9  1.3575868399999999e+02 1.9844487699999999e+02 1.0968983000000000e+02  -2.0825944900000001e-01 -1.0438683500000000e-01 1.1518547300000000e-01    1.2762200000000001e-01
    36 8  1.3639963399999999e+02 1.9590036699999999e+02 1.0881511000000000e+02  5.7284204000000005e-01 8.6389104800000005e-02 0.0000000000000000e+00    -1.7967700000000000e-01
    37 9  1.3791104400000000e+02 1.9716670700000000e+02 1.0969004000000000e+02  1.1467125200000000e-01 -1.2855521500000000e-02 1.5118093299999999e-01    9.9255999999999997e-02
    38 9  1.3791104400000000e+02 1.9716670700000000e+02 1.0794018000000000e+02  1.1467125200000000e-01 -1.2855521500000000e-02 -1.5118093299999999e-01    9.9255999999999997e-02
    39 8  1.3724498399999999e+02 1.9461860700000000e+02 1.0881511000000000e+02  -6.6643023700000004e-01 2.0568834500000001e-02 0.0000000000000000e+00    -1.7112100000000000e-01
    40 9  1.3574411400000000e+02 1.9590401700000001e+02 1.0794298999999999e+02  -1.0695793900000000e-01 -5.1422086200000005e-04 -1.7792041800000000e-01    9.3978000000000006e-02
    41 9  1.3574411400000000e+02 1.9590401700000001e+02 1.0968723000000000e+02  -1.0695793900000000e-01 -5.1422086200000005e-04 1.7792041800000000e-01    9.3978000000000006e-02
    42 8  1.3638394400000001e+02 1.9334751700000001e+02 1.0881511000000000e+02  5.7027093600000001e-01 -8.1246896200000002e-02 0.0000000000000000e+00    -1.7828300000000000e-01
    43 9  1.3790027400000000e+02 1.9461430700000000e+02 1.0968738999999999e+02  1.0952904400000001e-01 -9.2559755100000002e-03 1.8511950999999999e-01    9.0341000000000005e-02
    44 9  1.3790027400000000e+02 1.9461430700000000e+02 1.0794283000000000e+02  1.0952904400000001e-01 -9.2559755100000002e-03 -1.8511950999999999e-01    9.0341000000000005e-02
    45 7  1.3722683400000000e+02 1.9206720700000000e+02 1.0881511000000000e+02  -2.7407971900000000e-01 1.6969288399999999e-01 0.0000000000000000e+00    -3.1917299999999998e-01
    46 9  1.3572830400000001e+02 1.9334715700000001e+02 1.0794320999999999e+02  -9.4616638599999997e-02 4.7822540199999999e-02 -1.6300801300000001e-01    9.3997999999999998e-02
    47 9  1.3572830400000001e+02 1.9334715700000001e+02 1.0968701000000000e+02  -9.4616638599999997e-02 4.7822540199999999e-02 1.6300801300000001e-01    9.3997999999999998e-02
    48 9  1.3786652400000000e+02 1.9201403700000000e+02 1.0793360000000000e+02  8.7931767399999999e-02 1.5426625899999999e-02 -9.7701963800000000e-02    1.0256200000000000e-01
    49 9  1.3659054399999999e+02 1.9118169700000001e+02 1.0881511000000000e+02  -4.1651889800000001e-02 -1.0798638100000001e-01 0.0000000000000000e+00    1.0057000000000001e-01
    50 9  1.3786652400000000e+02 1.9201403700000000e+02 1.0969662000000000e+02  8.7931767399999999e-02 1.5426625899999999e-02 9.7701963800000000e-02    1.0256200000000000e-01
    51 3  1.3165803399999999e+02 2.0137633700000001e+02 1.0881511000000000e+02  2.2625717900000002e-02 1.0644371800000001e-01 0.0000000000000000e+00    1.2143100000000000e-01
    52 3  1.4011094399999999e+02 2.0146447699999999e+02 1.0881511000000000e+02  -3.4967018599999997e-02 -1.1878501900000001e-01 0.0000000000000000e+00    1.2897200000000000e-01
 Energy
    -4.2888611066099998e+04
END_CFG

