BEGIN_CFG
 Size
    52
 Supercell
    2.8452910000000003e+02 0.0000000000000000e+00 0.0000000000000000e+00
    0.0000000000000000e+00 4.0250600100000003e+02 0.0000000000000000e+00
    0.0000000000000000e+00 0.0000000000000000e+00 2.1763022000000001e+02
 AtomData:  id type       cartes_x      cartes_y      cartes_z           fx          fy          fz      charge
    1 4  1.3370321400000000e+02 1.9918149700000001e+02 1.0898220999999999e+02  -4.7308319299999999e-02 -1.3631994999999999e+00 -3.7589545000000002e-01    2.5673299999999999e-01
    2 1  1.3256331399999999e+02 2.0021417700000001e+02 1.0971782000000000e+02  -1.3683417099999999e+00 -2.1597276200000001e-01 2.7407971900000000e-01    -3.4375499999999998e-01
    3 0  1.3463783400000000e+02 2.0044949700000001e+02 1.0829962999999999e+02  -1.0418114700000001e+00 1.4963827100000000e+00 2.2666855600000000e+00    -1.8246699999999999e-01
    4 5  1.3288115400000001e+02 2.0153187700000001e+02 1.0951163000000000e+02  -6.0678061700000001e-02 6.5717426199999995e-01 7.1990920700000004e-03    1.1833900000000000e-01
    5 2  1.3410808399999999e+02 2.0165069700000001e+02 1.0880410000000001e+02  2.3345627099999999e-01 -1.6460209800000001e+00 -1.3703985999999999e+00    -9.8878999999999995e-02
    6 3  1.3456799400000000e+02 2.0255584700000000e+02 1.0851281000000000e+02  3.1676005099999999e-01 1.1153450499999999e+00 -9.1531313399999994e-02    9.8047999999999996e-02
    7 6  1.3197677400000001e+02 2.0270642699999999e+02 1.0990007000000000e+02  4.2423221100000003e-01 -1.5004964800000000e+00 -2.5520781399999999e+00    -2.3245199999999999e-01
    8 8  1.3106261400000000e+02 2.0324805699999999e+02 1.0877334000000000e+02  2.7248563500000000e+00 -1.5169515400000000e-01 -1.0644371800000001e+00    -1.8218500000000001e-01
    9 9  1.3250747400000000e+02 2.0352891700000001e+02 1.1024941000000000e+02  1.3590857400000000e+00 1.3868536600000001e+00 1.0232995199999999e+00    1.0924300000000001e-01
    10 9  1.3140688399999999e+02 2.0231497700000000e+02 1.1066531000000001e+02  -1.5760869399999999e+00 -5.0445066599999999e-01 1.9488970699999999e+00    1.0283399999999999e-01
    11 8  1.3174046400000000e+02 2.0440875700000001e+02 1.0797963000000000e+02  -6.7157244599999999e-01 -1.8923327700000001e-01 9.0554293799999996e-01    -1.9547900000000001e-01
    12 9  1.3019519399999999e+02 2.0355320699999999e+02 1.0921928000000000e+02  -2.6394956800000000e+00 9.9861691399999997e-01 1.0562096500000000e+00    1.0281100000000000e-01
    13 9  1.3083813400000000e+02 2.0245825700000000e+02 1.0808689000000000e+02  -3.1418894700000000e-01 -6.7260088699999998e-01 -4.6639832199999998e-01    1.0106700000000000e-01
    14 8  1.3178265400000001e+02 2.0573829699999999e+02 1.0879616000000000e+02  1.2341300700000000e+00 -1.4557592600000000e+00 9.0297183400000003e-01    -1.7988299999999999e-01
    15 9  1.3130162400000000e+02 2.0449621700000000e+02 1.0697340000000000e+02  6.2734945200000003e-02 2.2317185400000000e-01 3.3784310600000000e-01    9.3774999999999997e-02
    16 9  1.3273141400000000e+02 2.0403547699999999e+02 1.0786715000000000e+02  1.1585395999999999e+00 -2.2625717900000002e-02 -5.9958152499999995e-01    1.0504200000000000e-01
    17 8  1.3318377400000000e+02 2.0633578700000001e+02 1.0909595000000000e+02  -1.5642598599999999e+00 4.6948364700000000e-01 -9.2148378500000006e-01    -1.7880499999999999e-01
    18 9  1.3141166400000000e+02 2.0547653700000001e+02 1.0979772000000000e+02  -5.1062131600000005e-01 3.5224128999999998e-01 -1.4295340000000001e-01    9.0831999999999996e-02
    19 9  1.3116878399999999e+02 2.0648411700000000e+02 1.0835650000000000e+02  -7.8058726800000000e-01 7.7338817599999998e-01 -3.4092843099999998e-01    9.7947999999999993e-02
    20 7  1.3309170399999999e+02 2.0764888700000000e+02 1.0980090000000000e+02  -1.3986807400000001e-01 2.4014114300000000e+00 -1.5431768100000001e+00    -3.1952799999999998e-01
    21 9  1.3360492400000001e+02 2.0671317700000000e+02 1.0819907000000001e+02  1.0690651700000000e+00 -9.1942690100000002e-01 -1.5277501800000000e+00    1.0738600000000000e-01
    22 9  1.3378365400000001e+02 2.0561067700000001e+02 1.0962549000000000e+02  5.4610255500000005e-01 -1.5426625899999999e-01 -1.2855521500000000e-02    9.7591999999999998e-02
    23 9  1.3233316400000001e+02 2.0838980699999999e+02 1.0932504000000000e+02  1.5246648599999999e+00 -1.1379707699999999e+00 5.2450527900000002e-02    8.4737000000000007e-02
    24 9  1.3407638399999999e+02 2.0815650700000000e+02 1.0993096000000000e+02  -6.7414355000000004e-01 -3.0081920400000001e-01 -2.1288743700000001e-01    9.8187999999999998e-02
    25 9  1.3265526399999999e+02 2.0755983699999999e+02 1.1071168000000000e+02  -1.0783211500000001e+00 -4.4274416200000000e-01 3.4586495199999998e+00    1.0943400000000000e-01
    26 4  1.3563031400000000e+02 2.0103065699999999e+02 1.0590312000000000e+02  7.3585005299999995e-01 -1.2341300700000000e-02 -1.1564827200000001e+00    2.4773000000000001e-01
    27 0  1.3577440400000000e+02 2.0026635700000000e+02 1.0742716000000000e+02  -1.6095113000000000e-01 -9.0502871700000001e-02 -1.2546989000000000e-01    -2.3243200000000000e-01
    28 1  1.3713544400000001e+02 2.0033372700000001e+02 1.0530480000000000e+02  -6.2683523100000005e-01 5.9855308299999999e-01 7.6207531699999997e-01    -3.0136299999999999e-01
    29 5  1.3690027400000000e+02 1.9950584699999999e+02 1.0751116000000000e+02  9.5387969900000003e-01 -1.0459252299999999e+00 8.1658272899999995e-01    1.3691200000000001e-01
    30 2  1.3771860400000000e+02 1.9959542700000000e+02 1.0633537000000000e+02  -2.2234910100000000e+00 1.3318320299999999e+00 -1.7010426100000000e+00    -9.4756000000000007e-02
    31 3  1.3861265399999999e+02 1.9909044700000001e+02 1.0614763000000001e+02  1.4166784699999999e+00 -8.9011631199999997e-01 1.6763600100000001e-01    9.8060999999999995e-02
    32 6  1.3733285400000000e+02 1.9860498699999999e+02 1.0870158000000001e+02  5.6255762300000001e-01 3.4195687299999999e-01 -1.0793495900000001e+00    -2.3244200000000001e-01
    33 8  1.3764990399999999e+02 1.9938602700000001e+02 1.0996638000000000e+02  5.2039151200000000e-01 1.0973473199999999e+00 1.2881232600000001e+00    -1.7610200000000001e-01
    34 9  1.3825410400000001e+02 1.9811836700000001e+02 1.0834067000000000e+02  -1.3112631999999999e-01 -1.0798638100000001e-02 2.4116958399999999e-01    9.7612000000000004e-02
    35 9  1.3663569400000000e+02 1.9778858700000001e+02 1.0888679999999999e+02  -3.1058940099999999e-01 3.4967018599999997e-02 9.2559755100000002e-03    1.2004800000000000e-01
    36 8  1.3854028400000001e+02 1.9863128699999999e+02 1.1105689000000000e+02  4.7565429700000000e-01 -1.8151996400000001e-01 -1.2582984500000001e+00    -1.8987899999999999e-01
    37 9  1.3670419400000000e+02 1.9979045700000000e+02 1.1041385000000000e+02  7.2607985700000000e-01 -4.1549045600000001e-01 -2.5916731399999998e-01    1.0876100000000000e-01
    38 9  1.3822541400000000e+02 2.0028438700000001e+02 1.0963667000000000e+02  -4.2063266500000002e-01 -4.3400240699999998e-01 3.0390452899999998e-01    9.6393000000000006e-02
    39 8  1.4005328399999999e+02 1.9901466700000000e+02 1.1103198000000000e+02  -8.6646215199999999e-01 1.1415703100000001e-01 1.1256294700000000e+00    -1.9089100000000001e-01
    40 9  1.3844972400000000e+02 1.9755330699999999e+02 1.1084944000000000e+02  1.1827079799999999e-02 9.3073976000000003e-02 1.7534931400000001e-01    8.6421999999999999e-02
    41 9  1.3825557400000000e+02 1.9877180700000000e+02 1.1209178000000000e+02  -7.6207531699999997e-01 2.7048017299999999e-01 1.3986807400000001e-01    1.0220500000000000e-01
    42 8  1.4030473400000000e+02 2.0054309699999999e+02 1.1134196000000000e+02  -5.4507411399999997e-02 -1.3616568400000000e+00 6.8339952500000001e-01    -1.7407400000000001e-01
    43 9  1.4050553400000001e+02 1.9864852700000000e+02 1.1013428999999999e+02  2.5093978099999997e-01 5.8569756200000000e-01 -1.3745123600000000e+00    9.6182000000000004e-02
    44 9  1.4063648400000000e+02 1.9834689700000001e+02 1.1171456000000001e+02  -7.5281934200000000e-01 7.2762252000000005e-01 3.9029363400000000e-01    8.8176000000000004e-02
    45 7  1.4157554400000001e+02 2.0072082700000001e+02 1.1216228000000000e+02  1.6439641000000000e+00 1.3009787800000000e-01 -1.5992268800000001e-01    -3.2252599999999998e-01
    46 9  1.3949356399999999e+02 2.0109819700000000e+02 1.1182519000000001e+02  -4.2988864100000002e-01 -9.3588196899999998e-01 8.1144052000000000e-01    9.8502999999999993e-02
    47 9  1.4023777400000000e+02 2.0111313699999999e+02 1.1045214000000000e+02  1.0335839300000000e+00 4.2474643200000001e-01 -1.5318639500000000e+00    1.0634700000000000e-01
    48 9  1.4243524400000001e+02 2.0013208700000001e+02 1.1175944000000000e+02  -7.9447123200000003e-01 -2.8076459100000001e-01 1.7946308100000000e-01    9.7868999999999998e-02
    49 9  1.4146574400000000e+02 2.0041310700000000e+02 1.1325293000000001e+02  4.1137669000000002e-02 6.9162705899999999e-01 -1.3323462500000001e+00    1.0508099999999999e-01
    50 9  1.4203756400000000e+02 2.0172202700000000e+02 1.1200958000000000e+02  -7.7287395500000000e-01 -9.9758847200000000e-02 8.2840980900000005e-01    9.6517000000000006e-02
    51 3  1.3160498400000000e+02 1.9976341700000000e+02 1.1012867000000000e+02  1.5210653100000000e+00 7.6516064299999997e-01 -3.7538122899999998e-01    1.3126399999999999e-01
    52 3  1.3739085399999999e+02 2.0062358699999999e+02 1.0424975000000001e+02  2.2522873800000001e-01 -6.4688984400000005e-01 1.4197637999999999e+00    1.3980600000000001e-01
 Energy
    -4.2885920067300001e+04
END_CFG

