BEGIN_CFG
 Size
    52
 Supercell
    2.8462900000000001e+01 0.0000000000000000e+00 0.0000000000000000e+00
    0.0000000000000000e+00 4.0145099999999999e+01 0.0000000000000000e+00
    0.0000000000000000e+00 0.0000000000000000e+00 2.1766999999999999e+01
 AtomData:  id type       cartes_x      cartes_y      cartes_z           fx          fy          fz      charge
    1 2  1.2227290000000000e+01 2.0951801000000000e+01 1.0625292000000000e+01  1.2046799999999999e+01 5.7605599999999999e+00 1.2045400000000001e-01    -5.6700000000000000e-02
    2 0  1.1136740000000000e+01 1.9644825999999998e+01 1.0824129900000001e+01  -1.5583499999999999e+00 5.2002699999999997e+00 -1.5371200000000000e+01    -9.7000000000000003e-03
    3 0  1.3596520300000000e+01 1.9896701000000000e+01 1.0813634199999999e+01  -1.8540300000000001e+00 3.5182000000000002e+00 4.6236300000000004e+00    -9.7000000000000003e-03
    4 0  1.1767630000000000e+01 1.8450009999999999e+01 1.0999116000000001e+01  -2.5254300000000001e+01 1.2167999999999999e+01 8.7334700000000005e+00    -2.0700000000000000e-02
    5 0  1.3180873999999999e+01 1.8593959999999999e+01 1.1007539000000000e+01  2.3600700000000000e+01 9.1325699999999994e+00 -4.3752399999999998e+00    -1.5370000000000000e-01
    6 1  1.3891194000000000e+01 1.7776019999999999e+01 1.1047172000000000e+01  -5.2811300000000001e+00 -2.2407800000000000e+00 3.5927500000000001e+00    1.4230000000000001e-01
    7 0  1.0943470000000000e+01 1.7200080000000000e+01 1.1146914000000001e+01  -1.7840399999999999e+01 3.0403099999999998e+00 4.3229599999999998e+01    -5.0700000000000002e-02
    8 0  1.1693210000000001e+01 1.5887490000000000e+01 1.1141463999999999e+01  -9.7700999999999993e+00 -1.5920500000000001e+01 -1.8816900000000000e+01    -1.2570000000000001e-01
    9 1  1.0187320000000000e+01 1.7237960000000001e+01 1.0414911000000000e+01  -1.3487800000000000e+01 -5.0382600000000002e+00 -2.3475300000000001e+01    5.4300000000000001e-02
    10 1  1.0312070000000000e+01 1.7279229999999998e+01 1.2098770000000000e+01  2.5367100000000001e+01 -1.9630399999999999e+00 -2.7156300000000002e+01    5.4300000000000001e-02
    11 0  1.0806279999999999e+01 1.4634340000000000e+01 1.0983217500000000e+01  3.4869300000000001e+00 2.0311299999999999e+01 -4.9460299999999997e+01    -1.2570000000000001e-01
    12 1  1.2113149999999999e+01 1.5822789999999999e+01 1.2092900000000000e+01  2.1581800000000001e+01 -3.6012499999999998e+00 2.6851199999999999e+01    5.4300000000000001e-02
    13 1  1.2491899999999999e+01 1.5863320000000000e+01 1.0393217999999999e+01  -9.5630400000000004e-01 2.6840199999999999e+00 2.7271299999999998e+00    5.4300000000000001e-02
    14 0  1.1611710000000000e+01 1.3342570000000000e+01 1.1103600000000000e+01  -2.2354900000000001e+01 -5.7093600000000002e+01 3.8853099999999998e+01    -1.2570000000000001e-01
    15 1  1.0349159999999999e+01 1.4729710000000001e+01 9.9347600000000007e+00  9.9978499999999997e+00 -8.7476599999999998e+00 3.7201999999999998e+01    5.4300000000000001e-02
    16 1  1.0026030000000000e+01 1.4620320000000000e+01 1.1719784000000001e+01  -1.1219700000000000e+01 2.5709700000000000e+00 5.7827299999999999e+00    5.4300000000000001e-02
    17 0  1.0719099999999999e+01 1.2066940000000001e+01 1.0729620000000001e+01  -4.2987000000000002e+01 4.6631399999999999e+01 3.1991599999999998e+01    -1.2570000000000001e-01
    18 1  1.2065160000000001e+01 1.3220610000000001e+01 1.2140430000000000e+01  -1.6790299999999998e+01 4.9894200000000000e+00 -2.7553500000000000e+01    5.4300000000000001e-02
    19 1  1.2431469999999999e+01 1.3277970000000000e+01 1.0467321999999999e+01  2.6807400000000001e+01 9.7904099999999996e+00 -2.3227100000000000e+01    5.4300000000000001e-02
    20 0  1.1399310000000000e+01 1.0691300000000000e+01 1.0721219000000000e+01  -1.6098500000000001e+01 -1.0117400000000000e+01 1.3419499999999999e+01    -1.8570000000000000e-01
    21 1  1.0248799999999999e+01 1.2312820000000000e+01 9.7430099999999999e+00  7.7086300000000003e+00 -1.2882199999999999e+01 1.5914999999999999e+01    5.4300000000000001e-02
    22 1  9.8476800000000004e+00 1.2070180000000001e+01 1.1499497000000000e+01  3.5439500000000002e+01 -5.3373299999999997e+00 -3.3973100000000002e+01    5.4300000000000001e-02
    23 1  1.2094560000000000e+01 1.0676990000000000e+01 9.9075509999999998e+00  8.1916499999999992e+00 -8.5278399999999994e+00 -1.0689200000000000e+01    5.4300000000000001e-02
    24 1  1.0690560000000000e+01 9.8201999999999998e+00 1.0696888000000000e+01  1.0761400000000000e+01 2.0548999999999999e+01 -8.8302499999999995e+00    5.4300000000000001e-02
    25 1  1.1944509999999999e+01 1.0508990000000001e+01 1.1638536000000000e+01  6.2598300000000000e+00 4.9431700000000003e+00 3.4122100000000000e+00    5.4300000000000001e-02
    26 2  1.6184740000000001e+01 1.9209547000000001e+01 1.0903524900000001e+01  4.9983300000000002e+00 -7.4769300000000003e+00 -2.0459600000000000e+00    -5.6700000000000000e-02
    27 0  1.4957140000000001e+01 2.0424484000000000e+01 1.0812233400000000e+01  8.4689099999999993e+00 7.8030499999999998e+00 -6.4212199999999999e+00    -9.7000000000000003e-03
    28 0  1.7479340000000001e+01 2.0341152999999998e+01 1.0822223200000000e+01  -2.7614399999999999e+00 -3.5805900000000001e+01 -3.4593200000000000e+00    -9.7000000000000003e-03
    29 0  1.5549730000000000e+01 2.1688040000000001e+01 1.0725288000000001e+01  -5.0812499999999998e+00 -3.8288699999999999e+01 1.1599700000000000e+01    -2.0700000000000000e-02
    30 0  1.6987060000000000e+01 2.1586559999999999e+01 1.0785935600000000e+01  1.5461499999999999e+00 3.5186500000000002e+01 -9.2686400000000002e-02    -1.5370000000000000e-01
    31 1  1.7614879999999999e+01 2.2468299999999999e+01 1.0836681499999999e+01  3.6870599999999998e+00 -4.6225699999999996e+00 -3.9494199999999999e+00    1.4230000000000001e-01
    32 0  1.4831070000000000e+01 2.3000019999999999e+01 1.0757436999999999e+01  -2.7800500000000000e+01 6.7911599999999996e+00 1.3360300000000001e+01    -5.0700000000000002e-02
    33 0  1.5715460000000000e+01 2.4247910000000001e+01 1.0928190900000001e+01  1.5234400000000001e+01 8.4706299999999999e+00 1.4814399999999999e+01    -1.2570000000000001e-01
    34 1  1.4124311000000001e+01 2.2973559999999999e+01 1.1629478000000001e+01  1.3038000000000000e+01 -1.4914799999999999e+00 -1.7569299999999998e+01    5.4300000000000001e-02
    35 1  1.4186071000000000e+01 2.3052730000000000e+01 9.8642699999999994e+00  7.9429499999999997e+00 3.5487600000000001e+00 4.9908799999999998e+00    5.4300000000000001e-02
    36 0  1.4839900000000000e+01 2.5511389999999999e+01 1.1129825000000000e+01  2.0714600000000001e+01 -7.7155800000000001e+00 -6.5606200000000001e+00    -1.2570000000000001e-01
    37 1  1.6388780000000001e+01 2.4381730000000001e+01 1.0058165000000001e+01  -1.0221700000000000e+01 -1.9116200000000001e+00 6.8839100000000002e+00    5.4300000000000001e-02
    38 1  1.6410299999999999e+01 2.4124420000000001e+01 1.1804809000000001e+01  -1.7599499999999999e+01 3.4421400000000002e+00 -1.5958800000000000e+01    5.4300000000000001e-02
    39 0  1.5637210000000000e+01 2.6796559999999999e+01 1.1130642000000000e+01  3.2419400000000003e+01 1.7545200000000001e+01 7.3564900000000000e+00    -1.2570000000000001e-01
    40 1  1.4259897000000000e+01 2.5514099999999999e+01 1.2040600000000000e+01  -6.0934799999999996e+00 -8.8781499999999998e+00 5.1556800000000003e+00    5.4300000000000001e-02
    41 1  1.4179978000000000e+01 2.5539159999999999e+01 1.0292280999999999e+01  -1.5955399999999999e+01 1.8604200000000000e+00 -8.5576399999999992e+00    5.4300000000000001e-02
    42 0  1.4788060000000000e+01 2.8025710000000000e+01 1.0836013100000001e+01  -5.6670200000000001e+01 -5.3838800000000004e+00 -1.7504000000000001e+01    -1.2570000000000001e-01
    43 1  1.6465129999999998e+01 2.6824839999999998e+01 1.0397424000000001e+01  -1.0046600000000000e+01 -1.0251200000000001e+01 3.9350499999999999e+00    5.4300000000000001e-02
    44 1  1.6169720000000002e+01 2.6903130000000001e+01 1.2087930000000000e+01  -7.6595500000000003e+00 4.9283800000000000e-01 -3.3982299999999999e+00    5.4300000000000001e-02
    45 0  1.5491930000000000e+01 2.9354590000000002e+01 1.0902764500000000e+01  -1.1639600000000001e+00 1.3777600000000000e+01 9.1288499999999999e+00    -1.8570000000000000e-01
    46 1  1.3822976000000001e+01 2.8118250000000000e+01 1.1422031000000000e+01  2.8159400000000002e+01 -1.0158600000000000e+01 -7.3540999999999999e+00    5.4300000000000001e-02
    47 1  1.4399820999999999e+01 2.7870329999999999e+01 9.7925100000000000e+00  9.5357099999999999e+00 7.3545100000000003e+00 1.9497699999999998e+01    5.4300000000000001e-02
    48 1  1.5650180000000001e+01 2.9683000000000000e+01 1.1967160000000000e+01  -6.3607199999999997e+00 -7.9429200000000000e-01 -2.3827900000000000e+01    5.4300000000000001e-02
    49 1  1.4937440000000000e+01 3.0070399999999999e+01 1.0265571000000000e+01  3.5495999999999999e+00 -2.0505599999999999e-01 1.6481300000000001e+01    5.4300000000000001e-02
    50 1  1.6442380000000000e+01 2.9289480000000001e+01 1.0420393000000001e+01  1.5895799999999999e+01 -1.8749600000000000e+00 -2.4037700000000002e+00    5.4300000000000001e-02
    51 1  1.0102530000000000e+01 1.9845099000000001e+01 1.0578106999999999e+01  -3.3274900000000001e+00 -5.0790800000000003e+00 8.8206000000000007e+00    1.4230000000000001e-01
    52 1  1.8489149999999999e+01 1.9932710000000000e+01 1.0795251100000000e+01  -2.4503200000000000e-01 1.3845400000000000e+01 3.5519799999999999e+00    1.4230000000000001e-01
 Energy
    4.8780064000000003e+01
END_CFG

