BEGIN_CFG
 Size
    128
 Supercell
    1.4080000000000000e+01 0.0000000000000000e+00 0.0000000000000000e+00
    0.0000000000000000e+00 1.4080000000000000e+01 0.0000000000000000e+00
    0.0000000000000000e+00 0.0000000000000000e+00 1.4080000000000000e+01
 AtomData:  id type       cartes_x      cartes_y      cartes_z           fx          fy          fz
    1 0  0.0000000000000000e+00 0.0000000000000000e+00 0.0000000000000000e+00  -9.9999999999999995e-07 -0.0000000000000000e+00 -9.9999999999999995e-07
    2 0  1.7600000000000000e+00 1.7600000000000000e+00 1.7600000000000000e+00  -9.9999999999999995e-07 1.9999999999999999e-06 9.9999999999999995e-07
    3 0  0.0000000000000000e+00 0.0000000000000000e+00 3.5200000000000000e+00  -9.9999999999999995e-07 0.0000000000000000e+00 1.9999999999999999e-06
    4 0  1.7600000000000000e+00 1.7600000000000000e+00 5.2800000000000002e+00  -9.9999999999999995e-07 9.9999999999999995e-07 1.9999999999999999e-06
    5 0  0.0000000000000000e+00 0.0000000000000000e+00 7.0400000000000000e+00  -9.9999999999999995e-07 -0.0000000000000000e+00 9.9999999999999995e-07
    6 0  1.7600000000000000e+00 1.7600000000000000e+00 8.8000000000000007e+00  -9.9999999999999995e-07 9.9999999999999995e-07 -0.0000000000000000e+00
    7 0  0.0000000000000000e+00 0.0000000000000000e+00 1.0560000000000000e+01  -0.0000000000000000e+00 -0.0000000000000000e+00 -1.9999999999999999e-06
    8 0  1.7600000000000000e+00 1.7600000000000000e+00 1.2320000000000000e+01  -9.9999999999999995e-07 9.9999999999999995e-07 -3.0000000000000001e-06
    9 0  0.0000000000000000e+00 3.5200000000000000e+00 0.0000000000000000e+00  -9.9999999999999995e-07 1.9999999999999999e-06 -0.0000000000000000e+00
    10 0  1.7600000000000000e+00 5.2800000000000002e+00 1.7600000000000000e+00  -9.9999999999999995e-07 9.9999999999999995e-07 9.9999999999999995e-07
    11 0  0.0000000000000000e+00 3.5200000000000000e+00 3.5200000000000000e+00  -9.9999999999999995e-07 1.9999999999999999e-06 9.9999999999999995e-07
    12 0  1.7600000000000000e+00 5.2800000000000002e+00 5.2800000000000002e+00  -0.0000000000000000e+00 9.9999999999999995e-07 1.9999999999999999e-06
    13 0  0.0000000000000000e+00 3.5200000000000000e+00 7.0400000000000000e+00  -0.0000000000000000e+00 1.9999999999999999e-06 9.9999999999999995e-07
    14 0  1.7600000000000000e+00 5.2800000000000002e+00 8.8000000000000007e+00  -0.0000000000000000e+00 9.9999999999999995e-07 -9.9999999999999995e-07
    15 0  0.0000000000000000e+00 3.5200000000000000e+00 1.0560000000000000e+01  -0.0000000000000000e+00 9.9999999999999995e-07 -1.9999999999999999e-06
    16 0  1.7600000000000000e+00 5.2800000000000002e+00 1.2320000000000000e+01  -9.9999999999999995e-07 9.9999999999999995e-07 -1.9999999999999999e-06
    17 0  0.0000000000000000e+00 7.0400000000000000e+00 0.0000000000000000e+00  -9.9999999999999995e-07 -0.0000000000000000e+00 -9.9999999999999995e-07
    18 0  1.7600000000000000e+00 8.8000000000000007e+00 1.7600000000000000e+00  -0.0000000000000000e+00 -9.9999999999999995e-07 9.9999999999999995e-07
    19 0  0.0000000000000000e+00 7.0400000000000000e+00 3.5200000000000000e+00  -9.9999999999999995e-07 -0.0000000000000000e+00 1.9999999999999999e-06
    20 0  1.7600000000000000e+00 8.8000000000000007e+00 5.2800000000000002e+00  -0.0000000000000000e+00 -9.9999999999999995e-07 1.9999999999999999e-06
    21 0  0.0000000000000000e+00 7.0400000000000000e+00 7.0400000000000000e+00  -0.0000000000000000e+00 0.0000000000000000e+00 9.9999999999999995e-07
    22 0  1.7600000000000000e+00 8.8000000000000007e+00 8.8000000000000007e+00  0.0000000000000000e+00 -9.9999999999999995e-07 -9.9999999999999995e-07
    23 0  0.0000000000000000e+00 7.0400000000000000e+00 1.0560000000000000e+01  -9.9999999999999995e-07 -0.0000000000000000e+00 -1.9999999999999999e-06
    24 0  1.7600000000000000e+00 8.8000000000000007e+00 1.2320000000000000e+01  -9.9999999999999995e-07 -0.0000000000000000e+00 -1.9999999999999999e-06
    25 0  0.0000000000000000e+00 1.0560000000000000e+01 0.0000000000000000e+00  -9.9999999999999995e-07 -9.9999999999999995e-07 -9.9999999999999995e-07
    26 0  1.7600000000000000e+00 1.2320000000000000e+01 1.7600000000000000e+00  -9.9999999999999995e-07 -1.9999999999999999e-06 9.9999999999999995e-07
    27 0  0.0000000000000000e+00 1.0560000000000000e+01 3.5200000000000000e+00  -9.9999999999999995e-07 -1.9999999999999999e-06 1.9999999999999999e-06
    28 0  1.7600000000000000e+00 1.2320000000000000e+01 5.2800000000000002e+00  -9.9999999999999995e-07 -1.9999999999999999e-06 1.9999999999999999e-06
    29 0  0.0000000000000000e+00 1.0560000000000000e+01 7.0400000000000000e+00  -9.9999999999999995e-07 -1.9999999999999999e-06 0.0000000000000000e+00
    30 0  1.7600000000000000e+00 1.2320000000000000e+01 8.8000000000000007e+00  -9.9999999999999995e-07 -9.9999999999999995e-07 -0.0000000000000000e+00
    31 0  0.0000000000000000e+00 1.0560000000000000e+01 1.0560000000000000e+01  -0.0000000000000000e+00 -9.9999999999999995e-07 -9.9999999999999995e-07
    32 0  1.7600000000000000e+00 1.2320000000000000e+01 1.2320000000000000e+01  -9.9999999999999995e-07 -1.9999999999999999e-06 -3.0000000000000001e-06
    33 0  3.5200000000000000e+00 0.0000000000000000e+00 0.0000000000000000e+00  -0.0000000000000000e+00 -0.0000000000000000e+00 -9.9999999999999995e-07
    34 0  5.2800000000000002e+00 1.7600000000000000e+00 1.7600000000000000e+00  0.0000000000000000e+00 1.9999999999999999e-06 9.9999999999999995e-07
    35 0  3.5200000000000000e+00 0.0000000000000000e+00 3.5200000000000000e+00  -0.0000000000000000e+00 0.0000000000000000e+00 1.9999999999999999e-06
    36 0  5.2800000000000002e+00 1.7600000000000000e+00 5.2800000000000002e+00  0.0000000000000000e+00 1.9999999999999999e-06 1.9999999999999999e-06
    37 0  3.5200000000000000e+00 0.0000000000000000e+00 7.0400000000000000e+00  -0.0000000000000000e+00 -0.0000000000000000e+00 9.9999999999999995e-07
    38 0  5.2800000000000002e+00 1.7600000000000000e+00 8.8000000000000007e+00  -0.0000000000000000e+00 9.9999999999999995e-07 -9.9999999999999995e-07
    39 0  3.5200000000000000e+00 0.0000000000000000e+00 1.0560000000000000e+01  -9.9999999999999995e-07 -0.0000000000000000e+00 -1.9999999999999999e-06
    40 0  5.2800000000000002e+00 1.7600000000000000e+00 1.2320000000000000e+01  0.0000000000000000e+00 9.9999999999999995e-07 -1.9999999999999999e-06
    41 0  3.5200000000000000e+00 3.5200000000000000e+00 0.0000000000000000e+00  -0.0000000000000000e+00 1.9999999999999999e-06 -0.0000000000000000e+00
    42 0  5.2800000000000002e+00 5.2800000000000002e+00 1.7600000000000000e+00  9.9999999999999995e-07 1.9999999999999999e-06 1.9999999999999999e-06
    43 0  3.5200000000000000e+00 3.5200000000000000e+00 3.5200000000000000e+00  -0.0000000000000000e+00 1.9999999999999999e-06 1.9999999999999999e-06
    44 0  5.2800000000000002e+00 5.2800000000000002e+00 5.2800000000000002e+00  0.0000000000000000e+00 9.9999999999999995e-07 1.9999999999999999e-06
    45 0  3.5200000000000000e+00 3.5200000000000000e+00 7.0400000000000000e+00  -0.0000000000000000e+00 1.9999999999999999e-06 9.9999999999999995e-07
    46 0  5.2800000000000002e+00 5.2800000000000002e+00 8.8000000000000007e+00  0.0000000000000000e+00 9.9999999999999995e-07 -9.9999999999999995e-07
    47 0  3.5200000000000000e+00 3.5200000000000000e+00 1.0560000000000000e+01  -9.9999999999999995e-07 9.9999999999999995e-07 -1.9999999999999999e-06
    48 0  5.2800000000000002e+00 5.2800000000000002e+00 1.2320000000000000e+01  9.9999999999999995e-07 9.9999999999999995e-07 -1.9999999999999999e-06
    49 0  3.5200000000000000e+00 7.0400000000000000e+00 0.0000000000000000e+00  0.0000000000000000e+00 0.0000000000000000e+00 -9.9999999999999995e-07
    50 0  5.2800000000000002e+00 8.8000000000000007e+00 1.7600000000000000e+00  9.9999999999999995e-07 -9.9999999999999995e-07 9.9999999999999995e-07
    51 0  3.5200000000000000e+00 7.0400000000000000e+00 3.5200000000000000e+00  0.0000000000000000e+00 0.0000000000000000e+00 1.9999999999999999e-06
    52 0  5.2800000000000002e+00 8.8000000000000007e+00 5.2800000000000002e+00  0.0000000000000000e+00 -9.9999999999999995e-07 1.9999999999999999e-06
    53 0  3.5200000000000000e+00 7.0400000000000000e+00 7.0400000000000000e+00  -0.0000000000000000e+00 0.0000000000000000e+00 9.9999999999999995e-07
    54 0  5.2800000000000002e+00 8.8000000000000007e+00 8.8000000000000007e+00  0.0000000000000000e+00 -9.9999999999999995e-07 -9.9999999999999995e-07
    55 0  3.5200000000000000e+00 7.0400000000000000e+00 1.0560000000000000e+01  0.0000000000000000e+00 9.9999999999999995e-07 -3.0000000000000001e-06
    56 0  5.2800000000000002e+00 8.8000000000000007e+00 1.2320000000000000e+01  0.0000000000000000e+00 -9.9999999999999995e-07 -1.9999999999999999e-06
    57 0  3.5200000000000000e+00 1.0560000000000000e+01 0.0000000000000000e+00  -0.0000000000000000e+00 -1.9999999999999999e-06 -9.9999999999999995e-07
    58 0  5.2800000000000002e+00 1.2320000000000000e+01 1.7600000000000000e+00  0.0000000000000000e+00 -1.9999999999999999e-06 9.9999999999999995e-07
    59 0  3.5200000000000000e+00 1.0560000000000000e+01 3.5200000000000000e+00  0.0000000000000000e+00 -1.9999999999999999e-06 1.9999999999999999e-06
    60 0  5.2800000000000002e+00 1.2320000000000000e+01 5.2800000000000002e+00  0.0000000000000000e+00 -1.9999999999999999e-06 1.9999999999999999e-06
    61 0  3.5200000000000000e+00 1.0560000000000000e+01 7.0400000000000000e+00  -0.0000000000000000e+00 -1.9999999999999999e-06 9.9999999999999995e-07
    62 0  5.2800000000000002e+00 1.2320000000000000e+01 8.8000000000000007e+00  -0.0000000000000000e+00 -1.9999999999999999e-06 -9.9999999999999995e-07
    63 0  3.5200000000000000e+00 1.0560000000000000e+01 1.0560000000000000e+01  -9.9999999999999995e-07 -1.9999999999999999e-06 -1.9999999999999999e-06
    64 0  5.2800000000000002e+00 1.2320000000000000e+01 1.2320000000000000e+01  -0.0000000000000000e+00 -1.9999999999999999e-06 -1.9999999999999999e-06
    65 0  7.0400000000000000e+00 0.0000000000000000e+00 0.0000000000000000e+00  9.9999999999999995e-07 -0.0000000000000000e+00 -9.9999999999999995e-07
    66 0  8.8000000000000007e+00 1.7600000000000000e+00 1.7600000000000000e+00  9.9999999999999995e-07 9.9999999999999995e-07 9.9999999999999995e-07
    67 0  7.0400000000000000e+00 0.0000000000000000e+00 3.5200000000000000e+00  0.0000000000000000e+00 -9.9999999999999995e-07 1.9999999999999999e-06
    68 0  8.8000000000000007e+00 1.7600000000000000e+00 5.2800000000000002e+00  0.0000000000000000e+00 9.9999999999999995e-07 1.9999999999999999e-06
    69 0  7.0400000000000000e+00 0.0000000000000000e+00 7.0400000000000000e+00  0.0000000000000000e+00 -0.0000000000000000e+00 0.0000000000000000e+00
    70 0  8.8000000000000007e+00 1.7600000000000000e+00 8.8000000000000007e+00  0.0000000000000000e+00 1.9999999999999999e-06 -9.9999999999999995e-07
    71 0  7.0400000000000000e+00 0.0000000000000000e+00 1.0560000000000000e+01  0.0000000000000000e+00 0.0000000000000000e+00 -1.9999999999999999e-06
    72 0  8.8000000000000007e+00 1.7600000000000000e+00 1.2320000000000000e+01  9.9999999999999995e-07 1.9999999999999999e-06 -1.9999999999999999e-06
    73 0  7.0400000000000000e+00 3.5200000000000000e+00 0.0000000000000000e+00  9.9999999999999995e-07 1.9999999999999999e-06 -9.9999999999999995e-07
    74 0  8.8000000000000007e+00 5.2800000000000002e+00 1.7600000000000000e+00  9.9999999999999995e-07 1.9999999999999999e-06 9.9999999999999995e-07
    75 0  7.0400000000000000e+00 3.5200000000000000e+00 3.5200000000000000e+00  0.0000000000000000e+00 1.9999999999999999e-06 1.9999999999999999e-06
    76 0  8.8000000000000007e+00 5.2800000000000002e+00 5.2800000000000002e+00  0.0000000000000000e+00 9.9999999999999995e-07 1.9999999999999999e-06
    77 0  7.0400000000000000e+00 3.5200000000000000e+00 7.0400000000000000e+00  0.0000000000000000e+00 1.9999999999999999e-06 9.9999999999999995e-07
    78 0  8.8000000000000007e+00 5.2800000000000002e+00 8.8000000000000007e+00  0.0000000000000000e+00 1.9999999999999999e-06 -0.0000000000000000e+00
    79 0  7.0400000000000000e+00 3.5200000000000000e+00 1.0560000000000000e+01  9.9999999999999995e-07 1.9999999999999999e-06 -1.9999999999999999e-06
    80 0  8.8000000000000007e+00 5.2800000000000002e+00 1.2320000000000000e+01  9.9999999999999995e-07 9.9999999999999995e-07 -1.9999999999999999e-06
    81 0  7.0400000000000000e+00 7.0400000000000000e+00 0.0000000000000000e+00  9.9999999999999995e-07 -0.0000000000000000e+00 -0.0000000000000000e+00
    82 0  8.8000000000000007e+00 8.8000000000000007e+00 1.7600000000000000e+00  9.9999999999999995e-07 -9.9999999999999995e-07 9.9999999999999995e-07
    83 0  7.0400000000000000e+00 7.0400000000000000e+00 3.5200000000000000e+00  9.9999999999999995e-07 -0.0000000000000000e+00 1.9999999999999999e-06
    84 0  8.8000000000000007e+00 8.8000000000000007e+00 5.2800000000000002e+00  9.9999999999999995e-07 -9.9999999999999995e-07 9.9999999999999995e-07
    85 0  7.0400000000000000e+00 7.0400000000000000e+00 7.0400000000000000e+00  9.9999999999999995e-07 0.0000000000000000e+00 9.9999999999999995e-07
    86 0  8.8000000000000007e+00 8.8000000000000007e+00 8.8000000000000007e+00  0.0000000000000000e+00 -1.9999999999999999e-06 -0.0000000000000000e+00
    87 0  7.0400000000000000e+00 7.0400000000000000e+00 1.0560000000000000e+01  9.9999999999999995e-07 0.0000000000000000e+00 -1.9999999999999999e-06
    88 0  8.8000000000000007e+00 8.8000000000000007e+00 1.2320000000000000e+01  9.9999999999999995e-07 -9.9999999999999995e-07 -1.9999999999999999e-06
    89 0  7.0400000000000000e+00 1.0560000000000000e+01 0.0000000000000000e+00  9.9999999999999995e-07 -1.9999999999999999e-06 -0.0000000000000000e+00
    90 0  8.8000000000000007e+00 1.2320000000000000e+01 1.7600000000000000e+00  9.9999999999999995e-07 -1.9999999999999999e-06 9.9999999999999995e-07
    91 0  7.0400000000000000e+00 1.0560000000000000e+01 3.5200000000000000e+00  9.9999999999999995e-07 -1.9999999999999999e-06 1.9999999999999999e-06
    92 0  8.8000000000000007e+00 1.2320000000000000e+01 5.2800000000000002e+00  9.9999999999999995e-07 -1.9999999999999999e-06 1.9999999999999999e-06
    93 0  7.0400000000000000e+00 1.0560000000000000e+01 7.0400000000000000e+00  0.0000000000000000e+00 -1.9999999999999999e-06 0.0000000000000000e+00
    94 0  8.8000000000000007e+00 1.2320000000000000e+01 8.8000000000000007e+00  9.9999999999999995e-07 -1.9999999999999999e-06 -9.9999999999999995e-07
    95 0  7.0400000000000000e+00 1.0560000000000000e+01 1.0560000000000000e+01  9.9999999999999995e-07 -1.9999999999999999e-06 -1.9999999999999999e-06
    96 0  8.8000000000000007e+00 1.2320000000000000e+01 1.2320000000000000e+01  9.9999999999999995e-07 -1.9999999999999999e-06 -1.9999999999999999e-06
    97 0  1.0560000000000000e+01 0.0000000000000000e+00 0.0000000000000000e+00  9.9999999999999995e-07 -0.0000000000000000e+00 -9.9999999999999995e-07
    98 0  1.2320000000000000e+01 1.7600000000000000e+00 1.7600000000000000e+00  -0.0000000000000000e+00 1.9999999999999999e-06 9.9999999999999995e-07
    99 0  1.0560000000000000e+01 0.0000000000000000e+00 3.5200000000000000e+00  9.9999999999999995e-07 -9.9999999999999995e-07 1.9999999999999999e-06
    100 0  1.2320000000000000e+01 1.7600000000000000e+00 5.2800000000000002e+00  0.0000000000000000e+00 9.9999999999999995e-07 9.9999999999999995e-07
    101 0  1.0560000000000000e+01 0.0000000000000000e+00 7.0400000000000000e+00  9.9999999999999995e-07 -9.9999999999999995e-07 0.0000000000000000e+00
    102 0  1.2320000000000000e+01 1.7600000000000000e+00 8.8000000000000007e+00  0.0000000000000000e+00 9.9999999999999995e-07 -9.9999999999999995e-07
    103 0  1.0560000000000000e+01 0.0000000000000000e+00 1.0560000000000000e+01  9.9999999999999995e-07 -0.0000000000000000e+00 -9.9999999999999995e-07
    104 0  1.2320000000000000e+01 1.7600000000000000e+00 1.2320000000000000e+01  -0.0000000000000000e+00 9.9999999999999995e-07 -9.9999999999999995e-07
    105 0  1.0560000000000000e+01 3.5200000000000000e+00 0.0000000000000000e+00  9.9999999999999995e-07 1.9999999999999999e-06 -9.9999999999999995e-07
    106 0  1.2320000000000000e+01 5.2800000000000002e+00 1.7600000000000000e+00  -0.0000000000000000e+00 9.9999999999999995e-07 9.9999999999999995e-07
    107 0  1.0560000000000000e+01 3.5200000000000000e+00 3.5200000000000000e+00  9.9999999999999995e-07 1.9999999999999999e-06 9.9999999999999995e-07
    108 0  1.2320000000000000e+01 5.2800000000000002e+00 5.2800000000000002e+00  -0.0000000000000000e+00 9.9999999999999995e-07 9.9999999999999995e-07
    109 0  1.0560000000000000e+01 3.5200000000000000e+00 7.0400000000000000e+00  0.0000000000000000e+00 1.9999999999999999e-06 9.9999999999999995e-07
    110 0  1.2320000000000000e+01 5.2800000000000002e+00 8.8000000000000007e+00  -0.0000000000000000e+00 9.9999999999999995e-07 -9.9999999999999995e-07
    111 0  1.0560000000000000e+01 3.5200000000000000e+00 1.0560000000000000e+01  0.0000000000000000e+00 1.9999999999999999e-06 -9.9999999999999995e-07
    112 0  1.2320000000000000e+01 5.2800000000000002e+00 1.2320000000000000e+01  -9.9999999999999995e-07 9.9999999999999995e-07 -9.9999999999999995e-07
    113 0  1.0560000000000000e+01 7.0400000000000000e+00 0.0000000000000000e+00  -0.0000000000000000e+00 -9.9999999999999995e-07 -9.9999999999999995e-07
    114 0  1.2320000000000000e+01 8.8000000000000007e+00 1.7600000000000000e+00  -9.9999999999999995e-07 -9.9999999999999995e-07 9.9999999999999995e-07
    115 0  1.0560000000000000e+01 7.0400000000000000e+00 3.5200000000000000e+00  0.0000000000000000e+00 0.0000000000000000e+00 1.9999999999999999e-06
    116 0  1.2320000000000000e+01 8.8000000000000007e+00 5.2800000000000002e+00  -0.0000000000000000e+00 -9.9999999999999995e-07 1.9999999999999999e-06
    117 0  1.0560000000000000e+01 7.0400000000000000e+00 7.0400000000000000e+00  -0.0000000000000000e+00 0.0000000000000000e+00 9.9999999999999995e-07
    118 0  1.2320000000000000e+01 8.8000000000000007e+00 8.8000000000000007e+00  -9.9999999999999995e-07 -9.9999999999999995e-07 -9.9999999999999995e-07
    119 0  1.0560000000000000e+01 7.0400000000000000e+00 1.0560000000000000e+01  -0.0000000000000000e+00 -0.0000000000000000e+00 -1.9999999999999999e-06
    120 0  1.2320000000000000e+01 8.8000000000000007e+00 1.2320000000000000e+01  -9.9999999999999995e-07 -9.9999999999999995e-07 -1.9999999999999999e-06
    121 0  1.0560000000000000e+01 1.0560000000000000e+01 0.0000000000000000e+00  0.0000000000000000e+00 -1.9999999999999999e-06 -9.9999999999999995e-07
    122 0  1.2320000000000000e+01 1.2320000000000000e+01 1.7600000000000000e+00  -9.9999999999999995e-07 -9.9999999999999995e-07 9.9999999999999995e-07
    123 0  1.0560000000000000e+01 1.0560000000000000e+01 3.5200000000000000e+00  0.0000000000000000e+00 -1.9999999999999999e-06 1.9999999999999999e-06
    124 0  1.2320000000000000e+01 1.2320000000000000e+01 5.2800000000000002e+00  -0.0000000000000000e+00 -9.9999999999999995e-07 1.9999999999999999e-06
    125 0  1.0560000000000000e+01 1.0560000000000000e+01 7.0400000000000000e+00  0.0000000000000000e+00 -1.9999999999999999e-06 0.0000000000000000e+00
    126 0  1.2320000000000000e+01 1.2320000000000000e+01 8.8000000000000007e+00  0.0000000000000000e+00 -1.9999999999999999e-06 -9.9999999999999995e-07
    127 0  1.0560000000000000e+01 1.0560000000000000e+01 1.0560000000000000e+01  0.0000000000000000e+00 -1.9999999999999999e-06 -9.9999999999999995e-07
    128 0  1.2320000000000000e+01 1.2320000000000000e+01 1.2320000000000000e+01  -0.0000000000000000e+00 -9.9999999999999995e-07 -1.9999999999999999e-06
 Energy
    -2.4247434582000000e+02
 PlusStress:  xx          yy          zz          yz          xz          xy
     -1.5967250000000000e+01 -1.5967240000000000e+01 -1.5967240000000000e+01 0.0000000000000000e+00 -0.0000000000000000e+00 -0.0000000000000000e+00
END_CFG

BEGIN_CFG
 Size
    128
 Supercell
    1.4080000000000000e+01 0.0000000000000000e+00 0.0000000000000000e+00
    0.0000000000000000e+00 1.4080000000000000e+01 0.0000000000000000e+00
    0.0000000000000000e+00 0.0000000000000000e+00 1.4080000000000000e+01
 AtomData:  id type       cartes_x      cartes_y      cartes_z           fx          fy          fz
    1 0  2.6400000000000000e-03 1.0789999999999999e-02 1.4069319999999999e+01  -6.2259999999999998e-03 -5.2030000000000002e-03 7.9869999999999993e-03
    2 0  1.7783000000000000e+00 1.7503000000000000e+00 1.7581500000000001e+00  -2.6765000000000001e-02 1.8596999999999999e-02 1.5499999999999999e-03
    3 0  1.4065340000000001e+01 1.9650000000000001e-02 3.5275699999999999e+00  2.1056999999999999e-02 -1.7343000000000001e-02 -1.0840000000000001e-02
    4 0  1.7594099999999999e+00 1.7707200000000001e+00 5.2851699999999999e+00  5.6550000000000003e-03 -1.4146000000000001e-02 8.8599999999999998e-03
    5 0  7.4099999999999999e-03 1.4071389999999999e+01 7.0334599999999998e+00  -8.7030000000000007e-03 2.2756999999999999e-02 5.2230000000000002e-03
    6 0  1.7750500000000000e+00 1.7738200000000000e+00 8.7908000000000008e+00  -1.2200000000000000e-04 -1.9739000000000000e-02 1.1742000000000001e-02
    7 0  7.6099999999999996e-03 6.6200000000000000e-03 1.0559469999999999e+01  -5.6690000000000004e-03 2.4429999999999999e-03 -5.6119999999999998e-03
    8 0  1.7438300000000000e+00 1.7488900000000001e+00 1.2325210000000000e+01  2.6710000000000001e-02 1.5866999999999999e-02 -9.2069999999999999e-03
    9 0  1.4068070000000001e+01 3.5159699999999998e+00 1.4075550000000000e+01  7.8100000000000001e-03 -2.3460000000000000e-03 2.1419999999999998e-03
    10 0  1.7505900000000001e+00 5.2452699999999997e+00 1.7600100000000001e+00  2.1389999999999998e-03 3.7782999999999997e-02 -4.9059999999999998e-03
    11 0  1.4078379999999999e+01 3.5124000000000000e+00 3.5256900000000000e+00  -2.1340000000000000e-03 9.3480000000000004e-03 -8.4320000000000003e-03
    12 0  1.7771600000000001e+00 5.2891899999999996e+00 5.2762599999999997e+00  -2.9364999999999999e-02 -1.1211000000000000e-02 8.2990000000000008e-03
    13 0  1.0300000000000000e-02 3.5081699999999998e+00 7.0278999999999998e+00  -6.2119999999999996e-03 1.7727000000000000e-02 1.2599000000000001e-02
    14 0  1.7712100000000000e+00 5.2744299999999997e+00 8.7972199999999994e+00  -2.1340000000000000e-03 9.3899999999999995e-04 -7.2210000000000000e-03
    15 0  1.4619999999999999e-02 3.5113099999999999e+00 1.0554390000000000e+01  -1.4642000000000001e-02 1.6784000000000000e-02 1.1338000000000001e-02
    16 0  1.7502500000000001e+00 5.3052099999999998e+00 1.2333500000000001e+01  1.5642000000000000e-02 -3.0536000000000001e-02 -2.1173000000000001e-02
    17 0  3.1500000000000000e-03 7.0305799999999996e+00 1.4046189999999999e+01  -2.9819999999999998e-03 2.0174000000000001e-02 4.7077000000000001e-02
    18 0  1.7600199999999999e+00 8.7778799999999997e+00 1.7738600000000000e+00  -1.6362999999999999e-02 2.8420000000000001e-02 -2.5507999999999999e-02
    19 0  1.4061280000000000e+01 7.0292599999999998e+00 3.5217800000000001e+00  2.7673000000000000e-02 1.4120000000000001e-03 -8.4199999999999998e-04
    20 0  1.7788500000000000e+00 8.7780299999999993e+00 5.2922900000000004e+00  -2.3369000000000001e-02 1.9729000000000000e-02 -1.9806000000000001e-02
    21 0  1.4063359999999999e+01 7.0326899999999997e+00 7.0416800000000004e+00  3.0796000000000000e-02 5.7029999999999997e-03 7.7819999999999999e-03
    22 0  1.7523599999999999e+00 8.8117800000000006e+00 8.7973800000000004e+00  3.8270000000000001e-03 -2.8611000000000001e-02 -4.4920000000000003e-03
    23 0  1.8600000000000001e-03 7.0250100000000000e+00 1.0556580000000000e+01  -2.8260000000000000e-03 1.8655000000000001e-02 -6.2280000000000000e-03
    24 0  1.7504100000000000e+00 8.8143399999999996e+00 1.2305580000000001e+01  1.3011000000000000e-02 -4.3489999999999996e-03 2.3820999999999998e-02
    25 0  1.4054940000000000e+01 1.0576779999999999e+01 1.4068130000000000e+01  3.3831000000000000e-02 -1.9368000000000000e-02 2.2598000000000000e-02
    26 0  1.7673800000000000e+00 1.2330970000000001e+01 1.7393500000000000e+00  -1.0668000000000000e-02 3.6070000000000000e-03 1.9612999999999998e-02
    27 0  8.4899999999999993e-03 1.0564790000000000e+01 3.5240900000000002e+00  -2.4599999999999999e-03 -2.6170000000000000e-03 -1.2834000000000000e-02
    28 0  1.7662500000000001e+00 1.2325070000000000e+01 5.2755700000000001e+00  2.9910000000000002e-03 -9.9579999999999998e-03 5.0159999999999996e-03
    29 0  5.7700000000000000e-03 1.0562329999999999e+01 7.0446900000000001e+00  -1.2440000000000001e-03 -8.3289999999999996e-03 -1.3416000000000001e-02
    30 0  1.7555300000000000e+00 1.2324439999999999e+01 8.8039299999999994e+00  9.6769999999999998e-03 -6.6620000000000004e-03 -2.9600000000000000e-03
    31 0  3.9300000000000003e-03 1.0556260000000000e+01 1.0564610000000000e+01  -7.3520000000000000e-03 4.3899999999999998e-03 -9.3570000000000007e-03
    32 0  1.7685000000000000e+00 1.2326430000000000e+01 1.2314520000000000e+01  -1.0839999999999999e-03 2.4780000000000002e-03 3.0019999999999999e-03
    33 0  3.5240000000000000e+00 2.4910000000000002e-02 3.3999999999999998e-03  8.3110000000000007e-03 -3.5274000000000000e-02 -1.3519000000000000e-02
    34 0  5.2726600000000001e+00 1.7620199999999999e+00 1.7475400000000001e+00  4.4359999999999998e-03 1.0603000000000000e-02 2.0483000000000001e-02
    35 0  3.5145900000000001e+00 2.0559999999999998e-02 3.5409099999999998e+00  1.1583000000000000e-02 -2.9425000000000000e-02 -2.3074000000000001e-02
    36 0  5.2863800000000003e+00 1.7399500000000001e+00 5.2848499999999996e+00  -6.4219999999999998e-03 3.3043000000000003e-02 -7.9070000000000008e-03
    37 0  3.5250400000000002e+00 1.4075550000000000e+01 7.0487200000000003e+00  -3.4550000000000002e-03 8.9400000000000000e-03 -8.1790000000000005e-03
    38 0  5.2885799999999996e+00 1.7685900000000001e+00 8.8072800000000004e+00  -7.3790000000000001e-03 -6.3220000000000004e-03 -3.7529999999999998e-03
    39 0  3.5452100000000000e+00 1.4076350000000000e+01 1.0558529999999999e+01  -3.1690999999999997e-02 9.8320000000000005e-03 1.2190000000000000e-03
    40 0  5.2722499999999997e+00 1.7412900000000000e+00 1.2311130000000000e+01  1.6256000000000000e-02 2.4278999999999998e-02 2.2719000000000000e-02
    41 0  3.5171000000000001e+00 3.5305399999999998e+00 1.4066760000000000e+01  -2.3720000000000000e-03 -1.5514999999999999e-02 -3.3379999999999998e-03
    42 0  5.2863800000000003e+00 5.2668699999999999e+00 1.7425500000000000e+00  -1.4047000000000000e-02 1.1492000000000000e-02 1.3210000000000000e-02
    43 0  3.4994299999999998e+00 3.5146799999999998e+00 3.5388199999999999e+00  3.7368999999999999e-02 -1.9410000000000000e-03 -1.8030999999999998e-02
    44 0  5.2862000000000000e+00 5.2755200000000002e+00 5.2731100000000000e+00  -3.0800000000000001e-04 4.9990000000000000e-03 5.5180000000000003e-03
    45 0  3.5455100000000002e+00 3.5214799999999999e+00 7.0403300000000000e+00  -8.9320000000000007e-03 2.9689999999999999e-03 -4.2719999999999998e-03
    46 0  5.2800500000000001e+00 5.2866700000000000e+00 8.8244799999999994e+00  1.0850000000000000e-03 -1.3430000000000000e-03 -1.8266999999999999e-02
    47 0  3.5278100000000001e+00 3.5239199999999999e+00 1.0571080000000000e+01  -1.4815999999999999e-02 -1.7190000000000000e-03 6.9979999999999999e-03
    48 0  5.2678099999999999e+00 5.3078599999999998e+00 1.2320580000000000e+01  1.9474000000000002e-02 -1.7575000000000000e-02 1.0026999999999999e-02
    49 0  3.5149800000000000e+00 7.0480099999999997e+00 1.2919999999999999e-02  -7.7340000000000004e-03 -8.9020000000000002e-03 -1.5174000000000000e-02
    50 0  5.2744000000000000e+00 8.7799300000000002e+00 1.7445999999999999e+00  5.7679999999999997e-03 2.5478000000000001e-02 1.1878000000000000e-02
    51 0  3.5209899999999998e+00 7.0288599999999999e+00 3.5135600000000000e+00  1.0212000000000001e-02 -5.3520000000000000e-03 -3.3950000000000000e-03
    52 0  5.2827200000000003e+00 8.8160399999999992e+00 5.2696500000000004e+00  -1.2593000000000000e-02 -3.0780999999999999e-02 5.6410000000000002e-03
    53 0  3.5209100000000002e+00 7.0307300000000001e+00 7.0226499999999996e+00  1.8232999999999999e-02 6.9899999999999997e-03 2.7560999999999999e-02
    54 0  5.2690700000000001e+00 8.8041199999999993e+00 8.7966300000000004e+00  1.3547000000000000e-02 -1.2794000000000000e-02 7.4700000000000001e-03
    55 0  3.5152399999999999e+00 7.0481499999999997e+00 1.0563920000000000e+01  -1.1691000000000000e-02 2.8560000000000000e-03 -7.5890000000000003e-03
    56 0  5.2852800000000002e+00 8.7919699999999992e+00 1.2314560000000000e+01  -6.5919999999999998e-03 1.2479000000000001e-02 -2.3709999999999998e-03
    57 0  3.5374200000000000e+00 1.0580930000000000e+01 1.4073370000000001e+01  -2.8233999999999999e-02 -3.9425000000000002e-02 5.1799999999999997e-03
    58 0  5.2811300000000001e+00 1.2307760000000000e+01 1.7583400000000000e+00  -5.6540000000000002e-03 2.6634999999999999e-02 6.8079999999999998e-03
    59 0  3.5259000000000000e+00 1.0560910000000000e+01 3.5063499999999999e+00  -9.5429999999999994e-03 -6.5649999999999997e-03 8.1820000000000000e-03
    60 0  5.2829300000000003e+00 1.2317750000000000e+01 5.2854000000000001e+00  -1.3558000000000001e-02 -7.7099999999999998e-04 -5.7730000000000004e-03
    61 0  3.5316800000000002e+00 1.0545330000000000e+01 7.0484900000000001e+00  -1.8880999999999998e-02 2.3660000000000000e-02 -1.3200000000000000e-02
    62 0  5.2636700000000003e+00 1.2321230000000000e+01 8.8043399999999998e+00  2.9079000000000001e-02 -5.0800000000000003e-03 -2.1480000000000002e-03
    63 0  3.5137000000000000e+00 1.0554150000000000e+01 1.0546519999999999e+01  1.0680000000000000e-02 8.6779999999999999e-03 1.4652000000000000e-02
    64 0  5.2861900000000004e+00 1.2305690000000000e+01 1.2326340000000000e+01  -6.7289999999999997e-03 1.6850000000000000e-02 -1.0591000000000000e-02