BEGIN_CFG
 Size
    28
 Supercell
    8.2079299999999993e+00 0.0000000000000000e+00 -1.8599999999999999e-04
    0.0000000000000000e+00 3.8310599999999999e+00 0.0000000000000000e+00
    -1.9100000000000001e-04 0.0000000000000000e+00 9.1591400000000007e+00
 AtomData:  id type       cartes_x      cartes_y      cartes_z           fx          fy          fz
    1 0  7.5480000000000005e-02 3.7487800000000000e+00 3.0750000000000000e-01  -6.9255599999999995e-01 2.3281499999999999e-01 9.3812000000000006e-02
    2 0  2.1022400000000001e+00 1.9713900000000000e+00 4.9984299999999999e+00  -3.4662900000000002e-01 -1.5535800000000000e-01 -4.3018800000000001e-01
    3 0  4.0996300000000003e+00 1.8253699999999999e+00 1.9708399999999999e+00  1.6884900000000000e-01 2.3613100000000001e-01 -1.0076999999999999e-02
    4 0  6.0964200000000002e+00 3.7783000000000002e+00 6.4178199999999999e+00  7.3211400000000004e-01 1.0309000000000000e-01 6.3607300000000000e-01
    5 1  7.6480000000000006e-02 3.7322400000000000e+00 2.4542899999999999e+00  -8.8335799999999998e-01 2.5168800000000002e-01 -2.2222100000000000e-01
    6 1  4.0720299999999998e+00 3.7418600000000000e+00 2.5220099999999999e+00  2.4136600000000000e-01 5.3163600000000000e-01 9.7443800000000003e-01
    7 1  2.1324700000000001e+00 1.9302500000000000e+00 6.9848499999999998e+00  -2.3790089999999999e+00 8.5640999999999995e-02 -5.4556199999999999e-01
    8 1  6.1736000000000004e+00 1.8668700000000000e+00 7.1633699999999996e+00  4.0667999999999999e-01 2.6453300000000002e-01 -2.0410819999999998e+00
    9 1  9.5049999999999996e-02 1.8461300000000000e+00 4.7828900000000001e+00  -2.4860699999999999e-01 4.5844600000000002e-01 5.5922099999999997e-01
    10 1  4.0352699999999997e+00 1.8968700000000001e+00 4.8180600000000000e+00  -5.0455000000000000e-02 -1.8699499999999999e-01 5.6923599999999996e-01
    11 1  1.9510400000000001e+00 9.6040000000000000e-02 2.2678999999999999e-01  2.4270100000000000e-01 -2.5982930000000000e+00 3.5601800000000000e-01
    12 1  6.1881599999999999e+00 3.7924400000000000e+00 3.3904000000000001e-01  4.1093200000000002e-01 6.2768100000000004e-01 -3.7195200000000000e-01
    13 1  1.9903200000000001e+00 6.9120000000000001e-02 4.3161300000000002e+00  7.8960799999999998e-01 -4.9398900000000001e-01 3.1997999999999999e-01
    14 1  6.2138700000000000e+00 2.4580000000000001e-02 4.5176900000000000e+00  -1.1035150000000000e+00 -2.1504499999999999e-01 2.2464500000000001e-01
    15 1  8.1858199999999997e+00 1.9139100000000000e+00 8.8690400000000000e+00  2.3094300000000001e-01 -8.5830000000000004e-02 -4.1706900000000002e-01
    16 1  4.1772799999999997e+00 1.9194899999999999e+00 9.0345200000000006e+00  -1.7663290000000000e+00 5.0930000000000003e-03 -4.5369599999999999e-01
    17 1  2.1893899999999999e+00 1.9029300000000000e+00 2.0421999999999998e+00  -3.7494200000000000e-01 3.1728400000000001e-01 -4.3631500000000001e-01
    18 1  6.0469299999999997e+00 1.9373499999999999e+00 2.1232500000000001e+00  2.7090199999999998e-01 -7.0362000000000002e-01 -4.1623000000000000e-02
    19 1  2.7890000000000002e-02 3.7685200000000001e+00 6.6307200000000002e+00  -5.6042800000000004e-01 4.7447400000000001e-01 -5.4221500000000000e-01
    20 1  4.2667900000000003e+00 3.9919999999999997e-02 6.6686500000000004e+00  -4.2823899999999998e-01 -1.4535819999999999e+00 -5.3467900000000002e-01
    21 2  8.0937800000000006e+00 3.7495599999999998e+00 4.4517600000000002e+00  1.5818730000000001e+00 9.1467999999999994e-02 -8.1534600000000002e-01
    22 2  2.1382800000000000e+00 1.8222499999999999e+00 9.0214400000000001e+00  -3.5874999999999997e-02 1.9259949999999999e+00 -4.8519699999999999e-01
    23 2  3.9609500000000000e+00 1.8501099999999999e+00 6.9630000000000001e+00  1.9448989999999999e+00 6.9475699999999996e-01 1.5651839999999999e+00
    24 2  6.2331300000000001e+00 2.2480000000000000e-02 2.4368400000000001e+00  -4.6370200000000000e-01 -1.7260700000000001e-01 -9.0018000000000001e-02
    25 2  4.2963800000000001e+00 3.7419600000000002e+00 4.5649199999999999e+00  -6.3718600000000003e-01 7.6635799999999998e-01 -2.2523119999999999e+00
    26 2  6.0223599999999999e+00 1.9242100000000000e+00 8.9774100000000008e+00  1.3991160000000000e+00 -2.7256200000000003e-01 2.3745820000000002e+00
    27 2  8.1210000000000004e-02 1.8905300000000000e+00 6.8802099999999999e+00  8.8195900000000005e-01 -4.3661000000000000e-01 1.6846650000000001e+00
    28 2  1.9870200000000000e+00 4.5519999999999998e-02 2.4243199999999998e+00  6.6888999999999998e-01 -2.9259600000000002e-01 3.3169799999999999e-01
 Energy
    -2.2559201106000000e+02
 PlusStress:  xx          yy          zz          yz          xz          xy
     -7.6502999999999999e-01 -1.9265000000000001e+00 -8.4695699999999992e+00 -1.1803100000000000e+00 1.1199999999999999e-03 -1.9290000000000002e-02
END_CFG

BEGIN_CFG
 Size
    28
 Supercell
    8.2079299999999993e+00 0.0000000000000000e+00 -1.8599999999999999e-04
    0.0000000000000000e+00 3.8310599999999999e+00 0.0000000000000000e+00
    -1.9100000000000001e-04 0.0000000000000000e+00 9.1591400000000007e+00
 AtomData:  id type       cartes_x      cartes_y      cartes_z           fx          fy          fz
    1 0  8.1957500000000003e+00 0.0000000000000000e+00 3.5177000000000003e-01  -8.0079999999999995e-03 0.0000000000000000e+00 3.5748000000000002e-02
    2 0  2.0639400000000001e+00 1.9155300000000000e+00 4.9317299999999999e+00  9.0259999999999993e-03 0.0000000000000000e+00 3.7987000000000000e-02
    3 0  4.0919100000000004e+00 1.9155300000000000e+00 1.9378599999999999e+00  -9.8279999999999999e-03 0.0000000000000000e+00 -3.8214999999999999e-02
    4 0  6.1680000000000001e+00 0.0000000000000000e+00 6.5172800000000004e+00  8.1849999999999996e-03 0.0000000000000000e+00 -3.5671000000000001e-02
    5 1  2.6800000000000001e-03 0.0000000000000000e+00 2.3990300000000002e+00  -6.0200000000000000e-04 0.0000000000000000e+00 3.6299999999999999e-04
    6 1  4.0935100000000002e+00 0.0000000000000000e+00 2.5534900000000000e+00  -6.7759999999999999e-03 0.0000000000000000e+00 1.5540999999999999e-02
    7 1  2.0490300000000001e+00 1.9155300000000000e+00 6.9806299999999997e+00  1.1670000000000001e-03 0.0000000000000000e+00 -6.7450000000000001e-03
    8 1  6.1662400000000002e+00 1.9155300000000000e+00 7.1347899999999997e+00  8.2590000000000007e-03 0.0000000000000000e+00 1.1055000000000001e-02
    9 1  7.9409999999999994e-02 1.9155300000000000e+00 4.8256500000000004e+00  5.3670000000000002e-03 0.0000000000000000e+00 -1.9360000000000000e-03
    10 1  4.0328099999999996e+00 1.9155300000000000e+00 4.8553600000000001e+00  5.7879999999999997e-03 0.0000000000000000e+00 3.7422999999999998e-02
    11 1  1.9724600000000001e+00 0.0000000000000000e+00 2.4635000000000001e-01  -4.6299999999999996e-03 0.0000000000000000e+00 -1.0620000000000000e-03
    12 1  6.2270000000000003e+00 0.0000000000000000e+00 2.7570000000000000e-01  -5.8139999999999997e-03 0.0000000000000000e+00 3.9960000000000002e-02
    13 1  2.0624600000000002e+00 0.0000000000000000e+00 4.3159099999999997e+00  4.8669999999999998e-03 0.0000000000000000e+00 -1.5018999999999999e-02
    14 1  6.1530399999999998e+00 0.0000000000000000e+00 4.4702299999999999e+00  1.4030000000000000e-03 0.0000000000000000e+00 -6.4700000000000001e-04
    15 1  8.1974000000000000e+00 1.9155300000000000e+00 8.8933599999999995e+00  -8.7060000000000002e-03 0.0000000000000000e+00 -9.8359999999999993e-03
    16 1  4.1065399999999999e+00 1.9155300000000000e+00 9.0480400000000003e+00  -2.1760000000000000e-03 0.0000000000000000e+00 1.7190000000000000e-03
    17 1  2.1230899999999999e+00 1.9155300000000000e+00 2.0139399999999998e+00  -6.5950000000000002e-03 0.0000000000000000e+00 -3.6297999999999997e-02
    18 1  6.0764100000000001e+00 1.9155300000000000e+00 2.0436500000000000e+00  -5.1399999999999996e-03 0.0000000000000000e+00 1.3849999999999999e-03
    19 1  8.1366899999999998e+00 0.0000000000000000e+00 6.5933000000000002e+00  6.1609999999999998e-03 0.0000000000000000e+00 -3.9099000000000002e-02
    20 1  4.1833900000000002e+00 0.0000000000000000e+00 6.6230300000000000e+00  5.6629999999999996e-03 0.0000000000000000e+00 -2.9100000000000003e-04
    21 2  8.1476799999999994e+00 0.0000000000000000e+00 4.4100799999999998e+00  7.2059999999999997e-03 0.0000000000000000e+00 -1.7979999999999999e-03
    22 2  2.1117400000000002e+00 1.9155300000000000e+00 8.9913299999999996e+00  -6.6839999999999998e-03 0.0000000000000000e+00 5.4900000000000001e-04
    23 2  4.0440300000000002e+00 1.9155300000000000e+00 7.0367400000000000e+00  8.8749999999999992e-03 0.0000000000000000e+00 6.7219999999999997e-03
    24 2  6.2159899999999997e+00 0.0000000000000000e+00 2.4589400000000001e+00  -8.3040000000000006e-03 0.0000000000000000e+00 5.2680000000000001e-03
    25 2  4.2047400000000001e+00 0.0000000000000000e+00 4.4886400000000002e+00  1.9380000000000001e-03 0.0000000000000000e+00 2.1731000000000000e-02
    26 2  6.0550199999999998e+00 1.9155300000000000e+00 9.0701300000000007e+00  -7.7920000000000003e-03 0.0000000000000000e+00 5.5909999999999996e-03
    27 2  1.0034999999999999e-01 1.9155300000000000e+00 6.9584700000000002e+00  6.9069999999999999e-03 0.0000000000000000e+00 -9.4950000000000000e-03
    28 2  1.9508600000000000e+00 0.0000000000000000e+00 2.3807600000000000e+00  2.4100000000000000e-04 0.0000000000000000e+00 -2.4930999999999998e-02
 Energy
    -2.2701604649000001e+02
 PlusStress:  xx          yy          zz          yz          xz          xy
     -1.0197620000000001e+01 -1.0218389999999999e+01 -9.4168800000000008e+00 0.0000000000000000e+00 -1.5900000000000001e-02 0.0000000000000000e+00
END_CFG

BEGIN_CFG
 Size
    28
 Supercell
    8.2079299999999993e+00 0.0000000000000000e+00 -1.8599999999999999e-04
    0.0000000000000000e+00 3.8310599999999999e+00 0.0000000000000000e+00
    -1.9100000000000001e-04 0.0000000000000000e+00 9.1591400000000007e+00
 AtomData:  id type       cartes_x      cartes_y      cartes_z           fx          fy          fz
    1 0  3.5899999999999999e-03 3.8027400000000000e+00 3.6002000000000001e-01  -1.8086400000000000e-01 1.9097300000000000e-01 5.7328999999999998e-02
    2 0  2.0169600000000001e+00 1.8706100000000001e+00 4.8797100000000002e+00  2.5103900000000001e-01 2.0815000000000000e-02 2.1890999999999999e-01
    3 0  4.1905500000000000e+00 1.9167300000000000e+00 2.0313800000000000e+00  -6.2549699999999997e-01 -3.0346099999999998e-01 -1.7814199999999999e-01
    4 0  6.1353499999999999e+00 5.4780000000000002e-02 6.4175199999999997e+00  2.9998300000000000e-01 -2.0958599999999999e-01 7.0877999999999997e-02
    5 1  2.7199999999999998e-02 7.1720000000000006e-02 2.4609100000000002e+00  -6.0429400000000000e-01 -4.4374599999999997e-01 -6.3970400000000005e-01
    6 1  4.1442899999999998e+00 3.7469600000000001e+00 2.4648900000000000e+00  -1.8095700000000001e-01 7.4375500000000005e-01 2.8391699999999997e-01
    7 1  1.9777100000000001e+00 1.8230900000000001e+00 7.0299699999999996e+00  2.2072630000000002e+00 5.5411600000000005e-01 -1.7040000000000000e-02
    8 1  6.1982600000000003e+00 1.8174699999999999e+00 7.0928300000000002e+00  -8.5433000000000003e-01 1.0619920000000000e+00 1.3578159999999999e+00
    9 1  4.5749999999999999e-02 1.8253699999999999e+00 4.8586900000000002e+00  6.7672399999999999e-01 1.4788980000000000e+00 -4.5955900000000000e-01
    10 1  3.9479299999999999e+00 1.9615499999999999e+00 4.7609599999999999e+00  5.9967300000000001e-01 -7.1903600000000001e-01 5.0245799999999996e-01
    11 1  1.9581700000000000e+00 8.8819999999999996e-02 2.2364999999999999e-01  -2.5798900000000002e-01 -1.2567950000000001e+00 2.4445200000000000e-01
    12 1  6.3207800000000001e+00 6.8879999999999997e-02 3.0808999999999997e-01  -3.0744400000000000e-01 -1.7496620000000001e+00 1.1773000000000000e-02
    13 1  2.1312600000000002e+00 3.8256399999999999e+00 4.3765299999999998e+00  -1.1516249999999999e+00 -9.5412999999999998e-02 -1.0244190000000000e+00
    14 1  6.2153700000000001e+00 6.1940000000000002e-02 4.4856499999999997e+00  -9.0953700000000004e-01 -4.7011900000000001e-01 -1.2400850000000001e+00
    15 1  8.1870200000000004e+00 1.8290299999999999e+00 8.8075399999999995e+00  1.1960600000000000e-01 7.4228899999999998e-01 3.6234160000000002e+00
    16 1  4.1850800000000001e+00 1.9068700000000001e+00 9.1051599999999997e+00  -1.7211840000000000e+00 1.9641100000000000e-01 5.4979000000000000e-02
    17 1  2.2130299999999998e+00 1.8625900000000000e+00 2.0056600000000002e+00  -4.8592999999999997e-01 1.0921120000000000e+00 1.3804200000000000e-01
    18 1  6.1157100000000000e+00 1.9216500000000001e+00 2.0373100000000002e+00  1.8120000000000000e-03 -1.9254800000000000e-01 -6.1205000000000002e-02
    19 1  8.1610700000000005e+00 7.2480000000000003e-02 6.5238600000000000e+00  1.1340699999999999e-01 -1.6295560000000000e+00 8.3665800000000001e-01
    20 1  4.1408100000000001e+00 1.4640000000000000e-02 6.6996099999999998e+00  1.2765299999999999e-01 -1.3419400000000001e-01 -4.8974000000000001e-01
    21 2  2.9810000000000000e-02 3.7314400000000001e+00 4.4756700000000000e+00  -9.6406300000000000e-01 1.3171400000000000e-01 1.0674900000000000e-01
    22 2  2.0790999999999999e+00 2.0096900000000000e+00 9.0256299999999996e+00  1.5769470000000001e+00 -2.6251300000000000e-01 -3.3933300000000000e-01
    23 2  4.0708299999999999e+00 1.9785100000000000e+00 7.0926600000000004e+00  -1.9378999999999999e-01 -3.3534799999999998e-01 -4.9758300000000000e-01
    24 2  6.1304499999999997e+00 3.7834200000000000e+00 2.4038400000000002e+00  1.3980930000000000e+00 5.2702199999999999e-01 1.8190700000000000e+00
    25 2  4.1616600000000004e+00 3.8000799999999999e+00 4.4470499999999999e+00  6.1016499999999996e-01 3.5926300000000000e-01 2.5275199999999998e-01
    26 2  6.0261199999999997e+00 1.8631100000000000e+00 9.1198899999999998e+00  8.3653500000000003e-01 8.1746099999999999e-01 -1.5976189999999999e+00
    27 2  1.5562999999999999e-01 1.9800899999999999e+00 7.0552900000000003e+00  -1.7648670000000000e+00 1.0537000000000001e-01 -4.2590290000000000e+00
    28 2  1.8978600000000001e+00 3.8600000000000001e-03 2.3107600000000001e+00  1.3834679999999999e+00 -2.2021399999999999e-01 1.2242599999999999e+00
 Energy
    -2.2522398142000000e+02
 PlusStress:  xx          yy          zz          yz          xz          xy
     -5.6135700000000002e+00 -4.0331400000000004e+00 -5.9179800000000000e+00 -3.2695000000000002e-01 -9.5979999999999996e-02 -1.0764899999999999e+00
END_CFG

BEGIN_CFG
 Size
    28
 Supercell
    8.2079299999999993e+00 0.0000000000000000e+00 -1.8599999999999999e-04
    0.0000000000000000e+00 3.8310599999999999e+00 0.0000000000000000e+00
    -1.9100000000000001e-04 0.0000000000000000e+00 9.1591400000000007e+00
 AtomData:  id type       cartes_x      cartes_y      cartes_z           fx          fy          fz
    1 0  2.8510000000000001e-02 5.5280000000000003e-02 2.5444000000000000e-01  -3.7049799999999999e-01 -4.7310400000000002e-01 2.2046499999999999e-01
    2 0  2.0622199999999999e+00 1.9552700000000001e+00 4.9488500000000002e+00  1.2949099999999999e-01 -9.7202999999999998e-02 -2.1712400000000001e-01
    3 0  4.0667700000000000e+00 1.9453499999999999e+00 1.8824000000000001e+00  4.2173200000000000e-01 -2.5732999999999999e-02 5.3029400000000004e-01
    4 0  6.2352900000000000e+00 9.7180000000000002e-02 6.4560000000000004e+00  -4.3387300000000001e-01 -3.1312400000000001e-01 3.1687199999999999e-01
    5 1  8.1392500000000005e+00 3.7820800000000001e+00 2.4275899999999999e+00  2.0801159999999999e+00 2.9208200000000001e-01 -1.6917699999999999e-01
    6 1  4.1780700000000000e+00 3.7965599999999999e+00 2.5616300000000001e+00  -9.8270500000000005e-01 6.2505299999999997e-01 8.7672700000000003e-01
    7 1  1.9785100000000000e+00 1.9379500000000001e+00 7.0577899999999998e+00  1.1093789999999999e+00 1.5074599999999999e-01 -2.1309900000000001e-01
    8 1  6.1541399999999999e+00 1.9361100000000000e+00 7.0595299999999996e+00  3.8129500000000000e-01 2.1236400000000000e-01 9.5191899999999996e-01
    9 1  1.4410999999999999e-01 1.8913899999999999e+00 4.8420100000000001e+00  -5.3803000000000001e-01 1.1661980000000001e+00 1.8193899999999999e-01
    10 1  4.0213700000000001e+00 1.9383900000000001e+00 4.7755799999999997e+00  1.3545000000000000e-02 -1.9016999999999999e-02 9.1153600000000001e-01
    11 1  1.9910099999999999e+00 9.0579999999999994e-02 3.2186999999999999e-01  1.2297700000000000e-01 -6.5323299999999995e-01 -5.1067600000000002e-01
    12 1  6.1750800000000003e+00 3.8199200000000002e+00 2.9097000000000001e-01  6.1153900000000005e-01 5.8439200000000002e-01 -1.4596000000000001e-01
    13 1  2.0547200000000001e+00 3.8218200000000002e+00 4.3880299999999997e+00  2.7287299999999998e-01 2.3023700000000000e-01 -8.3684400000000003e-01
    14 1  6.1898400000000002e+00 3.7891400000000002e+00 4.4665900000000001e+00  -9.1593999999999998e-01 1.6420599999999999e-01 9.3345900000000004e-01
    15 1  8.1999600000000008e+00 1.8292900000000001e+00 8.9407399999999999e+00  -5.9226000000000001e-02 1.1031550000000001e+00 -7.2931500000000005e-01
    16 1  4.1648800000000001e+00 2.0138699999999998e+00 9.0879600000000007e+00  -8.8438200000000000e-01 -3.5419499999999998e-01 3.2650999999999999e-02
    17 1  2.0895700000000001e+00 1.9703900000000001e+00 2.1033400000000002e+00  1.8238099999999999e-01 -2.7169199999999999e-01 -5.4669599999999996e-01
    18 1  6.0200699999999996e+00 1.9853300000000000e+00 2.0536300000000001e+00  7.4359799999999998e-01 -1.1061209999999999e+00 -3.1105000000000001e-02
    19 1  2.4209999999999999e-02 3.4500000000000003e-02 6.6063599999999996e+00  -6.5707700000000002e-01 -4.4996500000000000e-01 -1.1382200000000001e-01
    20 1  4.1951900000000002e+00 5.0099999999999999e-02 6.6858100000000000e+00  -3.5094199999999998e-01 8.0370999999999998e-02 -3.0606400000000000e-01
    21 2  8.1067599999999995e+00 9.5720000000000000e-02 4.4634600000000004e+00  2.2230960000000000e+00 -9.7728599999999999e-01 -4.7099299999999999e-01
    22 2  2.1733799999999999e+00 1.9863700000000000e+00 9.0606200000000001e+00  -7.8760900000000000e-01 1.3840700000000000e-01 -3.4243200000000001e-01
    23 2  3.9479700000000002e+00 2.0056699999999998e+00 7.1238400000000004e+00  1.3303910000000001e+00 -2.7570699999999998e-01 -7.0503000000000005e-01
    24 2  6.2920699999999998e+00 2.6960000000000001e-02 2.5311599999999999e+00  -2.6634600000000002e+00 3.2896999999999998e-01 -1.5270230000000000e+00
    25 2  4.1771799999999999e+00 5.6559999999999999e-02 4.5746099999999998e+00  -7.1096300000000001e-01 -1.7213000000000001e-01 -1.6864980000000001e+00
    26 2  6.1018800000000004e+00 1.9304500000000000e+00 9.0814900000000005e+00  2.2232900000000000e-01 -5.8719999999999996e-03 -2.0905399999999999e-01
    27 2  8.7150000000000005e-02 1.9239700000000000e+00 6.9246900000000000e+00  -7.1033199999999996e-01 1.3680600000000001e-01 1.2227680000000001e+00
    28 2  1.9270600000000000e+00 5.2100000000000000e-02 2.3167800000000001e+00  2.2029499999999999e-01 -1.8605000000000000e-02 2.5822840000000000e+00
 Energy
    -2.2572668682000000e+02
 PlusStress:  xx          yy          zz          yz          xz          xy
     -6.4748999999999999e+00 -5.0461499999999999e+00 -1.2560650000000001e+01 -2.7595999999999998e-01 3.9665000000000000e-01 1.7502999999999999e-01
END_CFG

BEGIN_CFG
 Size
    28
 Supercell
    8.2079299999999993e+00 0.0000000000000000e+00 -1.8599999999999999e-04
    0.0000000000000000e+00 3.8310599999999999e+00 0.0000000000000000e+00
    -1.9100000000000001e-04 0.0000000000000000e+00 9.1591400000000007e+00
 AtomData:  id type       cartes_x      cartes_y      cartes_z           fx          fy          fz
    1 0  1.0499999999999999e-03 3.8056600000000000e+00 3.4952000000000000e-01  3.1210000000000001e-03 5.3225000000000001e-02 -8.3640000000000006e-02
    2 0  1.9900400000000000e+00 2.0019300000000002e+00 5.0064500000000001e+00  6.5826899999999999e-01 -4.8449100000000000e-01 -1.9360900000000000e-01
    3 0  4.1807900000000000e+00 1.9880500000000001e+00 2.0083000000000002e+00  -5.4357200000000006e-01 -4.6128599999999997e-01 -1.4315100000000000e-01
    4 0  6.1372900000000001e+00 3.4160000000000003e-02 6.4855999999999998e+00  2.7135999999999999e-01 1.7734800000000001e-01 3.2097199999999998e-01
    5 1  6.8320000000000006e-02 3.7962199999999999e+00 2.3575100000000000e+00  -9.6716400000000002e-01 1.7546500000000001e-01 3.1625000000000000e-02
    6 1  4.1462500000000002e+00 3.7723000000000000e+00 2.5659700000000001e+00  -5.2726000000000002e-02 6.8083800000000005e-01 2.2756899999999999e-01
    7 1  2.0010300000000001e+00 1.8562500000000000e+00 6.9496700000000002e+00  1.3181460000000000e+00 5.6522399999999995e-01 5.4590399999999994e-01
    8 1  6.1042199999999998e+00 2.0031099999999999e+00 7.1457899999999999e+00  7.0477599999999996e-01 -2.7793800000000002e-01 9.2673399999999995e-01
    9 1  1.2877000000000000e-01 1.8169500000000001e+00 4.7451100000000004e+00  -3.6529200000000001e-01 1.1918530000000001e+00 2.8418100000000002e-01
    10 1  4.0754299999999999e+00 1.8931500000000001e+00 4.8539599999999998e+00  -3.3113999999999999e-01 2.9884999999999998e-02 1.4850099999999999e-01
    11 1  2.0511100000000000e+00 1.7880000000000000e-02 3.1955000000000000e-01  -3.4820200000000001e-01 -4.9075400000000002e-01 -7.1963900000000003e-01
    12 1  6.1302599999999998e+00 4.3979999999999998e-02 3.3533000000000002e-01  8.1283799999999995e-01 -3.4100500000000000e-01 2.4453600000000000e-01
    13 1  2.1404399999999999e+00 3.7909799999999998e+00 4.2750899999999996e+00  -6.4972600000000003e-01 1.1167900000000000e-01 6.9031500000000001e-01
    14 1  6.1284999999999998e+00 3.7873199999999998e+00 4.5635899999999996e+00  8.9249299999999998e-01 5.5608999999999999e-02 -1.0905520000000000e+00
    15 1  3.3270000000000001e-02 1.8374299999999999e+00 8.8520599999999998e+00  -7.1593799999999996e-01 6.3813200000000003e-01 9.2259800000000003e-01
    16 1  4.1358600000000001e+00 1.9172100000000001e+00 8.9748400000000004e+00  -7.1899599999999997e-01 -1.4175000000000000e-02 2.1100110000000001e+00
    17 1  2.0648900000000001e+00 1.9692099999999999e+00 1.9814600000000000e+00  5.3571899999999995e-01 -1.2557380000000000e+00 1.2786400000000001e-01
    18 1  6.0872500000000000e+00 1.9342500000000000e+00 2.1257899999999998e+00  3.5573399999999999e-01 2.1528900000000001e-01 -3.3480199999999999e-01
    19 1  8.1855899999999995e+00 9.5119999999999996e-02 6.6768799999999997e+00  -5.3585799999999995e-01 -1.3214589999999999e+00 -5.9663400000000000e-01
    20 1  4.2517500000000004e+00 3.7740000000000003e-02 6.7112699999999998e+00  -8.0710400000000004e-01 -2.0105500000000001e-01 -5.1643899999999998e-01
    21 2  8.1146399999999996e+00 3.7745000000000002e+00 4.3432599999999999e+00  3.9715099999999998e-01 -1.1002000000000000e-02 1.1558050000000000e+00
    22 2  2.0519200000000000e+00 1.8622500000000000e+00 8.9955400000000001e+00  7.7496500000000001e-01 5.3427800000000003e-01 -1.1135000000000000e-01
    23 2  4.0708700000000002e+00 1.9672700000000001e+00 7.1008599999999999e+00  -3.8340000000000002e-03 -1.1779000000000001e-01 -1.8541850000000000e+00
    24 2  6.3020100000000001e+00 5.4260000000000003e-02 2.5063800000000001e+00  -1.0015540000000001e+00 -3.3720400000000000e-01 1.2001700000000000e-01
    25 2  4.2111599999999996e+00 3.7561599999999999e+00 4.4850099999999999e+00  -6.7398000000000000e-02 3.6766700000000002e-01 3.9759699999999998e-01
    26 2  6.0471899999999996e+00 1.9699500000000001e+00 9.0699999999999999e-03  2.6792600000000000e-01 -6.1835000000000001e-02 -1.6381710000000000e+00
    27 2  1.1913000000000000e-01 2.0117500000000001e+00 6.9372699999999998e+00  -7.3103399999999996e-01 -1.5509800000000001e-01 -1.6715800000000000e-01
    28 2  1.9641999999999999e+00 3.7651599999999998e+00 2.4053200000000001e+00  8.4704000000000002e-01 7.3433800000000005e-01 -8.0489800000000000e-01
 Energy
    -2.2581039304999999e+02
 PlusStress:  xx          yy          zz          yz          xz          xy
     -4.8370100000000003e+00 -7.3128599999999997e+00 -5.8555200000000003e+00 -1.4986699999999999e+00 -1.0140000000000000e+00 -4.9530999999999997e-01
END_CFG

BEGIN_CFG
 Size
    28
 Supercell
    8.2079299999999993e+00 0.0000000000000000e+00 -1.8599999999999999e-04
    0.0000000000000000e+00 3.8310599999999999e+00 0.0000000000000000e+00
    -1.9100000000000001e-04 0.0000000000000000e+00 9.1591400000000007e+00
 AtomData:  id type       cartes_x      cartes_y      cartes_z           fx          fy          fz
    1 0  8.1182900000000000e+00 8.3000000000000004e-02 3.7145000000000000e-01  9.7364999999999993e-02 -1.5466299999999999e-01 1.3679300000000000e-01
    2 0  2.0971000000000002e+00 1.8939299999999999e+00 5.0162100000000001e+00  -1.9130700000000000e-01 6.5176999999999999e-02 1.1297599999999999e-01
    3 0  4.0403500000000001e+00 1.9609099999999999e+00 1.8657800000000000e+00  2.1788399999999999e-01 -1.2121000000000000e-01 -7.0113999999999996e-02
    4 0  6.1496100000000000e+00 1.2600000000000000e-02 6.4189600000000002e+00  1.6249900000000000e-01 1.2026000000000000e-02 1.7807200000000001e-01
    5 1  8.8520000000000001e-02 3.7705000000000002e+00 2.4524699999999999e+00  -3.2667060000000001e+00 3.9781000000000000e-01 -1.3773629999999999e+00
    6 1  4.0705099999999996e+00 5.2499999999999998e-02 2.5611899999999999e+00  1.0578200000000000e-01 -2.4682399999999999e-01 -3.0820000000000001e-03
    7 1  1.9734700000000001e+00 2.0015100000000001e+00 7.0134299999999996e+00  1.1140040000000000e+00 -3.8717099999999999e-01 2.1290799999999999e-01
    8 1  6.1870799999999999e+00 1.8934899999999999e+00 7.0490500000000003e+00  -6.5398800000000001e-01 2.1117000000000000e-02 5.5025500000000005e-01
    9 1  2.5370000000000000e-02 1.9393300000000000e+00 4.7361300000000002e+00  1.9719999999999999e-01 -6.4931399999999995e-01 6.2142699999999995e-01
    10 1  3.9846100000000000e+00 1.9797100000000001e+00 4.9269800000000004e+00  1.6352700000000001e-01 -7.1056600000000003e-01 -7.6486299999999996e-01
    11 1  2.0488300000000002e+00 8.6720000000000005e-02 3.0098999999999998e-01  -8.5241699999999998e-01 -3.7377899999999997e-01 -4.1524899999999998e-01
    12 1  6.1501000000000001e+00 1.9879999999999998e-02 3.3578000000000002e-01  3.9162500000000000e-01 -7.5930100000000000e-01 -5.7859400000000005e-01
    13 1  1.9700400000000000e+00 3.8264399999999998e+00 4.3213699999999999e+00  7.9334800000000005e-01 2.9964900000000000e-01 1.0499280000000000e+00
    14 1  6.0885600000000002e+00 7.6999999999999999e-02 4.5153299999999996e+00  1.9129609999999999e+00 -1.7638999999999999e-01 -1.9360300000000000e-01
    15 1  8.1346000000000007e+00 1.9783700000000000e+00 8.9049399999999999e+00  5.9576099999999999e-01 -2.1007200000000001e-01 7.4924100000000005e-01
    16 1  4.1242200000000002e+00 1.8553900000000001e+00 9.0121400000000005e+00  -1.2859529999999999e+00 3.2466299999999998e-01 1.2977019999999999e+00
    17 1  2.1755100000000001e+00 2.0068700000000002e+00 1.9640200000000001e+00  -5.0093699999999997e-01 -1.3966609999999999e+00 5.3572399999999998e-01
    18 1  5.9886699999999999e+00 1.8547499999999999e+00 1.9987299999999999e+00  4.5682299999999998e-01 1.3273480000000000e+00 6.9035899999999994e-01
    19 1  8.0632099999999998e+00 3.8162400000000001e+00 6.6721800000000000e+00  3.3942800000000001e-01 8.6840200000000001e-01 -4.7731299999999999e-01
    20 1  4.2474299999999996e+00 3.7951000000000001e+00 6.5931499999999996e+00  -3.5272999999999999e-01 1.2506189999999999e+00 7.1432899999999999e-01
    21 2  8.1833600000000004e+00 3.7714799999999999e+00 4.3669200000000004e+00  -1.4490190000000001e+00 5.9392000000000000e-01 1.9095219999999999e+00
    22 2  2.0291000000000001e+00 2.0060899999999999e+00 8.9951200000000000e+00  9.3675900000000001e-01 1.6044900000000001e-01 3.5758800000000002e-01
    23 2  4.1214700000000004e+00 2.0136900000000000e+00 7.1359000000000004e+00  -1.0351349999999999e+00 -6.0334500000000002e-01 -2.9773900000000002e+00
    24 2  6.1259499999999996e+00 6.0720000000000003e-02 2.5350999999999999e+00  5.7991599999999999e-01 -6.9702299999999995e-01 -1.6591620000000000e+00
    25 2  4.2598000000000003e+00 2.4960000000000000e-02 4.4546999999999999e+00  -1.7632429999999999e+00 8.9853000000000002e-02 1.4878309999999999e+00
    26 2  6.0216799999999999e+00 1.8581900000000000e+00 9.0030900000000003e+00  8.4124299999999996e-01 4.7781200000000001e-01 1.0331310000000000e+00
    27 2  5.8150000000000000e-02 2.0106099999999998e+00 7.0098099999999999e+00  -4.1269899999999998e-01 -5.6568200000000002e-01 -1.0185029999999999e+00
    28 2  1.8857800000000000e+00 3.7384200000000001e+00 2.4713400000000001e+00  2.8580079999999999e+00 1.1631540000000000e+00 -2.1025529999999999e+00
 Energy
    -2.2531913603000001e+02
 PlusStress:  xx          yy          zz          yz          xz          xy
     2.4095700000000000e+00 -1.0180380000000000e+01 4.1269000000000000e+00 3.4675000000000000e-01 -1.1121000000000000e-01 -6.6883999999999999e-01
END_CFG

BEGIN_CFG
 Size
    28
 Supercell
    8.2079299999999993e+00 0.0000000000000000e+00 -1.8599999999999999e-04
    0.0000000000000000e+00 3.8310599999999999e+00 0.0000000000000000e+00
    -1.9100000000000001e-04 0.0000000000000000e+00 9.1591400000000007e+00
 AtomData:  id type       cartes_x      cartes_y      cartes_z           fx          fy          fz
    1 0  8.1857500000000005e+00 6.0920000000000002e-02 3.2752999999999999e-01  5.1738399999999996e-01 5.4549999999999998e-03 7.4476000000000001e-02
    2 0  2.1598799999999998e+00 1.9405100000000000e+00 4.9715299999999996e+00  -5.4947000000000001e-01 -9.3717999999999996e-02 1.1632999999999999e-02
    3 0  4.0579700000000001e+00 1.8761900000000000e+00 1.9451200000000000e+00  1.4807799999999999e-01 -2.2844000000000000e-02 -3.2837800000000000e-01
    4 0  6.1179399999999999e+00 3.7361200000000001e+00 6.5151199999999996e+00  5.1848999999999999e-02 3.1061800000000001e-01 -1.4411700000000000e-01