
-13.58933923  14.85561080 xlo xhi
-20.11440103  20.10669947 ylo yhi
-10.88178900  10.88178900 zlo zhi

52 atoms
53 bonds
98 angles
119 dihedrals
8 impropers

10 atom types
9 bond types
16 angle types
21 dihedral types
4 improper types

Atoms

     1   1   2  -0.0510     -1.36594936      -0.97592266       0.00000000
     2   1   4  -0.1520     -2.53856919       0.29679049       0.00000000
     3   1   3  -0.0045     -0.04494311       0.15618417       0.00000000
     4   1   6  -0.0150     -1.95378903       1.52897942       0.00000000
     5   1   5  -0.1475     -0.51872304       1.43938923       0.00000000
     6   1   1   0.1475      0.13447507       2.30188915       0.00000000
     7   1   7  -0.0450     -2.73930887       2.82786952       0.00000000
     8   1   8  -0.1200     -1.89174870       4.11091941       0.00000000
     9   1  10   0.0600     -3.39166887       2.82229960       0.87414700
    10   1  10   0.0600     -3.39166887       2.82229960      -0.87414700
    11   1   8  -0.1200     -2.73610853       5.39237952       0.00000000
    12   1  10   0.0600     -1.23978870       4.11247933      -0.87496200
    13   1  10   0.0600     -1.23978870       4.11247933       0.87496200
    14   1   8  -0.1200     -1.85878837       6.65206941       0.00000000
    15   1  10   0.0600     -3.38843853       5.39991960       0.87440400
    16   1  10   0.0600     -3.38843853       5.39991960      -0.87440400
    17   1   8  -0.1200     -2.67678820       7.95008951       0.00000000
    18   1  10   0.0600     -1.20484837       6.63704932      -0.87320200
    19   1  10   0.0600     -1.20484837       6.63704932       0.87320200
    20   1   9  -0.1800     -1.78376804       9.19609940       0.00000000
    21   1  10   0.0600     -3.32939820       7.97425960       0.87379900
    22   1  10   0.0600     -3.32939820       7.97425960      -0.87379900
    23   1  10   0.0600     -2.38324792      10.10669947       0.00000000
    24   1  10   0.0600     -1.14195804       9.22134931      -0.88134100
    25   1  10   0.0600     -1.14195804       9.22134931       0.88134100
    26   1   2  -0.0510      2.54312090       0.98639984       0.00000000
    27   1   3  -0.0045      1.34195073      -0.27448401       0.00000000
    28   1   4  -0.1520      3.83515075      -0.15607633       0.00000000
    29   1   6  -0.0150      1.93186057      -1.51950108       0.00000000
    30   1   5  -0.1475      3.37079058      -1.43557127       0.00000000
    31   1   1   0.1475      4.03256047      -2.29078136       0.00000000
    32   1   7  -0.0450      1.19067040      -2.84954099       0.00000000
    33   1   8  -0.1200      2.06183024      -4.11714110       0.00000000
    34   1  10   0.0600      0.54266340      -2.86813090      -0.87726200
    35   1  10   0.0600      0.54266340      -2.86813090       0.87726200
    36   1   8  -0.1200      1.22650007      -5.40452099       0.00000000
    37   1  10   0.0600      2.71180024      -4.11116119       0.87615800
    38   1  10   0.0600      2.71180024      -4.11116119      -0.87615800
    39   1   8  -0.1200      2.09961991      -6.66675111       0.00000000
    40   1  10   0.0600      0.57320507      -5.41344091      -0.87371900
    41   1  10   0.0600      0.57320507      -5.41344091       0.87371900
    42   1   8  -0.1200      1.26509974      -7.95462100       0.00000000
    43   1  10   0.0600      2.75309991      -6.65679119       0.87364500
    44   1  10   0.0600      2.75309991      -6.65679119      -0.87364500
    45   1   9  -0.1800      2.13436958      -9.21680111       0.00000000
    46   1  10   0.0600      0.61165874      -7.96826091      -0.87341900
    47   1  10   0.0600      0.61165874      -7.96826091       0.87341900
    48   1  10   0.0600      1.51546946     -10.11440103       0.00000000
    49   1  10   0.0600      2.77466957      -9.25569119       0.88178900
    50   1  10   0.0600      2.77466957      -9.25569119      -0.88178900
    51   1   1   0.1475     -3.58933923       0.03953713       0.00000000
    52   1   1   0.1475      4.85561080       0.20305754       0.00000000

Bonds

1 3 1 2
2 3 1 3
3 5 2 4
4 1 2 51
5 5 3 5
6 4 3 27
7 6 4 5
8 7 4 7
9 2 5 6
10 8 7 8
11 9 7 9
12 9 7 10
13 8 8 11
14 9 8 12
15 9 8 13
16 8 11 14
17 9 11 15
18 9 11 16
19 8 14 17
20 9 14 18
21 9 14 19
22 8 17 20
23 9 17 21
24 9 17 22
25 9 20 23
26 9 20 24
27 9 20 25
28 3 26 27
29 3 26 28
30 5 27 29
31 1 28 52
32 5 28 30
33 6 29 30
34 7 29 32
35 2 30 31
36 8 32 33
37 9 32 34
38 9 32 35
39 8 33 36
40 9 33 37
41 9 33 38
42 8 36 39
43 9 36 40
44 9 36 41
45 8 39 42
46 9 39 43
47 9 39 44
48 8 42 45
49 9 42 46
50 9 42 47
51 9 45 48
52 9 45 49
53 9 45 50

Angles

1 1 2 1 3
2 5 1 2 4
3 2 1 2 51
4 3 4 2 51
5 5 1 3 5
6 4 1 3 27
7 6 5 3 27
8 9 2 4 5
9 10 2 4 7
10 11 5 4 7
11 9 3 5 4
12 7 3 5 6
13 8 4 5 6
14 12 4 7 8
15 13 4 7 9
16 13 4 7 10
17 15 8 7 9
18 15 8 7 10
19 16 9 7 10
20 14 7 8 11
21 15 7 8 12
22 15 7 8 13
23 15 11 8 12
24 15 11 8 13
25 16 12 8 13
26 14 8 11 14
27 15 8 11 15
28 15 8 11 16
29 15 14 11 15
30 15 14 11 16
31 16 15 11 16
32 14 11 14 17
33 15 11 14 18
34 15 11 14 19
35 15 17 14 18
36 15 17 14 19
37 16 18 14 19
38 14 14 17 20
39 15 14 17 21
40 15 14 17 22
41 15 20 17 21
42 15 20 17 22
43 16 21 17 22
44 15 17 20 23
45 15 17 20 24
46 15 17 20 25
47 16 23 20 24
48 16 23 20 25
49 16 24 20 25
50 1 27 26 28
51 4 3 27 26
52 6 3 27 29
53 5 26 27 29
54 5 26 28 30
55 2 26 28 52
56 3 30 28 52
57 9 27 29 30
58 10 27 29 32
59 11 30 29 32
60 9 28 30 29
61 7 28 30 31
62 8 29 30 31
63 12 29 32 33
64 13 29 32 34
65 13 29 32 35
66 15 33 32 34
67 15 33 32 35
68 16 34 32 35
69 14 32 33 36
70 15 32 33 37
71 15 32 33 38
72 15 36 33 37
73 15 36 33 38
74 16 37 33 38
75 14 33 36 39
76 15 33 36 40
77 15 33 36 41
78 15 39 36 40
79 15 39 36 41
80 16 40 36 41
81 14 36 39 42
82 15 36 39 43
83 15 36 39 44
84 15 42 39 43
85 15 42 39 44
86 16 43 39 44
87 14 39 42 45
88 15 39 42 46
89 15 39 42 47
90 15 45 42 46
91 15 45 42 47
92 16 46 42 47
93 15 42 45 48
94 15 42 45 49
95 15 42 45 50
96 16 48 45 49
97 16 48 45 50
98 16 49 45 50

Dihedrals

1 3 3 1 2 4
2 1 3 1 2 51
3 3 2 1 3 5
4 2 2 1 3 27
5 9 1 2 4 5
6 6 51 2 4 5
7 10 1 2 4 7
8 7 51 2 4 7
9 9 1 3 5 4
10 12 27 3 5 4
11 8 1 3 5 6
12 11 27 3 5 6
13 4 1 3 27 26
14 16 2 4 5 3
15 17 7 4 5 3
16 14 2 4 5 6
17 15 7 4 5 6
18 18 2 4 7 8
19 20 9 7 8 11
20 20 10 7 8 11
21 21 9 7 8 12
22 21 10 7 8 12
23 21 9 7 8 13
24 21 10 7 8 13
25 19 7 8 11 14
26 20 12 8 11 14
27 20 13 8 11 14
28 20 7 8 11 15
29 21 12 8 11 15
30 21 13 8 11 15
31 20 7 8 11 16
32 21 12 8 11 16
33 21 13 8 11 16
34 19 8 11 14 17
35 20 15 11 14 17
36 20 16 11 14 17
37 20 8 11 14 18
38 21 15 11 14 18
39 21 16 11 14 18
40 20 8 11 14 19
41 21 15 11 14 19
42 21 16 11 14 19
43 19 11 14 17 20
44 20 18 14 17 20
45 20 19 14 17 20
46 20 11 14 17 21
47 21 18 14 17 21
48 21 19 14 17 21
49 20 11 14 17 22
50 21 18 14 17 22
51 21 19 14 17 22
52 20 14 17 20 23
53 21 21 17 20 23
54 21 22 17 20 23
55 20 14 17 20 24
56 21 21 17 20 24
57 21 22 17 20 24
58 20 14 17 20 25
59 21 21 17 20 25
60 21 22 17 20 25
61 2 28 26 27 3
62 3 28 26 27 29
63 1 27 26 28 52
64 3 27 26 28 30
65 12 3 27 29 30
66 9 26 27 29 30
67 13 3 27 29 32
68 10 26 27 29 32
69 6 52 28 30 29
70 9 26 28 30 29
71 5 52 28 30 31
72 8 26 28 30 31
73 16 27 29 30 28
74 17 32 29 30 28
75 14 27 29 30 31
76 15 32 29 30 31
77 18 27 29 32 33
78 20 34 32 33 36
79 20 35 32 33 36
80 21 34 32 33 37
81 21 35 32 33 37
82 21 34 32 33 38
83 21 35 32 33 38
84 19 32 33 36 39
85 20 37 33 36 39
86 20 38 33 36 39
87 20 32 33 36 40
88 21 37 33 36 40
89 21 38 33 36 40
90 20 32 33 36 41
91 21 37 33 36 41
92 21 38 33 36 41
93 19 33 36 39 42
94 20 40 36 39 42
95 20 41 36 39 42
96 20 33 36 39 43
97 21 40 36 39 43
98 21 41 36 39 43
99 20 33 36 39 44
100 21 40 36 39 44
101 21 41 36 39 44
102 19 36 39 42 45
103 20 43 39 42 45
104 20 44 39 42 45
105 20 36 39 42 46
106 21 43 39 42 46
107 21 44 39 42 46
108 20 36 39 42 47
109 21 43 39 42 47
110 21 44 39 42 47
111 20 39 42 45 48
112 21 46 42 45 48
113 21 47 42 45 48
114 20 39 42 45 49
115 21 46 42 45 49
116 21 47 42 45 49
117 20 39 42 45 50
118 21 46 42 45 50
119 21 47 42 45 50

Impropers

1 1 2 1 4 51
2 2 3 1 5 27
3 4 4 2 5 7
4 3 5 3 4 6
5 2 27 26 29 3
6 1 28 26 30 52
7 4 29 27 30 32
8 3 30 28 29 31
