BEGIN_CFG
 Size
    8
 Supercell
    5.5999999999999996e+00 0.0000000000000000e+00 0.0000000000000000e+00
    0.0000000000000000e+00 5.5999999999999996e+00 0.0000000000000000e+00
    0.0000000000000000e+00 0.0000000000000000e+00 5.5999999999999996e+00
 AtomData:  id type       cartes_x      cartes_y      cartes_z           fx          fy          fz      charge
    1 0  5.2645499999999998e+00 2.2364000000000001e-01 1.1182000000000000e-01  7.3455000000000004e-01 1.1962000000000000e-02 -2.3631800000000000e-01    8.6923720000000004e-01
    2 0  3.0236399999999999e+00 3.0236399999999999e+00 5.4881799999999998e+00  -2.7599899999999999e-01 -1.0742980000000000e+00 -2.5722200000000001e-01    8.6433260000000001e-01
    3 0  5.3763600000000000e+00 2.9118200000000001e+00 2.6881800000000000e+00  3.9942000000000000e-01 -3.0436500000000000e-01 1.2154100000000000e-01    8.6845980000000000e-01
    4 0  2.4645500000000000e+00 1.1182000000000000e-01 3.0236399999999999e+00  9.9253800000000003e-01 -7.3688100000000001e-01 1.3842299999999999e-01    8.6475159999999995e-01
    5 1  1.1182000000000000e-01 3.0236399999999999e+00 0.0000000000000000e+00  -7.4498999999999996e-02 -4.1000999999999999e-01 -4.3980999999999998e-01    -8.7123940000000000e-01
    6 1  2.7999999999999998e+00 5.3763600000000000e+00 2.2364000000000001e-01  -5.0568900000000006e-01 1.2010250000000000e+00 -3.9350800000000002e-01    -8.6292840000000004e-01
    7 1  1.1182000000000000e-01 5.4881799999999998e+00 2.6881800000000000e+00  -1.2323070000000000e+00 3.5938199999999998e-01 4.4806000000000001e-01    -8.6204099999999995e-01
    8 1  2.7999999999999998e+00 2.4645500000000000e+00 2.4645500000000000e+00  -3.8015000000000000e-02 9.5318499999999995e-01 6.1883500000000002e-01    -8.7057459999999998e-01
 Energy
    -2.5960578529999999e+01
 PlusStress:  xx          yy          zz          yz          xz          xy
     5.3310800000000000e+00 6.0553800000000004e+00 1.8600099999999999e+00 -1.8905000000000000e-01 3.7758000000000003e-01 6.9166000000000005e-01
END_CFG

BEGIN_CFG
 Size
    8
 Supercell
    5.5999999999999996e+00 0.0000000000000000e+00 0.0000000000000000e+00
    0.0000000000000000e+00 5.5999999999999996e+00 0.0000000000000000e+00
    0.0000000000000000e+00 0.0000000000000000e+00 5.5999999999999996e+00
 AtomData:  id type       cartes_x      cartes_y      cartes_z           fx          fy          fz      charge
    1 0  5.2645499999999998e+00 2.2364000000000001e-01 0.0000000000000000e+00  1.9739599999999999e-01 -2.9363099999999998e-01 1.0947700000000000e-01    8.7064799999999998e-01
    2 0  2.7999999999999998e+00 2.5763600000000002e+00 2.2364000000000001e-01  3.2585100000000000e-01 3.6961200000000000e-01 -1.2135640000000001e+00    8.6466620000000005e-01
    3 0  1.1182000000000000e-01 2.9118200000000001e+00 2.6881800000000000e+00  -1.0753919999999999e+00 -3.9664300000000002e-01 4.7130699999999998e-01    8.6323000000000005e-01
    4 0  2.6881800000000000e+00 0.0000000000000000e+00 3.0236399999999999e+00  -2.1829399999999999e-01 -3.1890600000000002e-01 -2.0704600000000002e+00    8.6095400000000000e-01
    5 1  2.2364000000000001e-01 2.9118200000000001e+00 1.1182000000000000e-01  -1.0327160000000000e+00 -1.1137000000000000e-01 -6.0579400000000005e-01    -8.7034590000000001e-01
    6 1  2.4645500000000000e+00 0.0000000000000000e+00 5.2645499999999998e+00  1.6624300000000000e-01 -1.9106899999999999e-01 2.3697759999999999e+00    -8.6394139999999997e-01
    7 1  5.2645499999999998e+00 5.3763600000000000e+00 2.9118200000000001e+00  2.4842300000000000e-01 7.3941800000000002e-01 -3.3415600000000001e-01    -8.6595599999999995e-01
    8 1  2.4645500000000000e+00 2.5763600000000002e+00 2.5763600000000002e+00  1.3884900000000000e+00 2.0258899999999999e-01 1.2734150000000000e+00    -8.5925209999999996e-01
 Energy
    -2.5638932799999999e+01
 PlusStress:  xx          yy          zz          yz          xz          xy
     4.9865500000000003e+00 2.9068900000000002e+00 9.1698400000000007e+00 1.1454000000000000e-01 -7.1853999999999996e-01 -1.0452500000000000e+00
END_CFG

BEGIN_CFG
 Size
    8
 Supercell
    5.5999999999999996e+00 0.0000000000000000e+00 0.0000000000000000e+00
    0.0000000000000000e+00 5.5999999999999996e+00 0.0000000000000000e+00
    0.0000000000000000e+00 0.0000000000000000e+00 5.5999999999999996e+00
 AtomData:  id type       cartes_x      cartes_y      cartes_z           fx          fy          fz      charge
    1 0  5.3763600000000000e+00 5.2645499999999998e+00 5.3763600000000000e+00  -1.6989499999999999e-01 1.5869100000000000e+00 1.0766840000000000e+00    8.5847969999999996e-01
    2 0  2.6881800000000000e+00 2.7999999999999998e+00 5.2645499999999998e+00  5.0434699999999999e-01 -1.6876200000000000e-01 5.2683199999999997e-01    8.6886030000000003e-01
    3 0  5.4881799999999998e+00 2.7999999999999998e+00 2.7999999999999998e+00  -8.8070000000000006e-03 -1.1911800000000000e-01 6.3080000000000002e-03    8.6787380000000003e-01
    4 0  2.4645500000000000e+00 5.2645499999999998e+00 2.6881800000000000e+00  2.1734800000000001e-01 1.3228219999999999e+00 4.8960100000000001e-01    8.6274969999999995e-01
    5 1  2.2364000000000001e-01 3.0236399999999999e+00 1.1182000000000000e-01  -6.7364100000000005e-01 -1.7331810000000001e+00 -2.1977000000000000e-02    -8.6172249999999995e-01
    6 1  2.6881800000000000e+00 0.0000000000000000e+00 2.2364000000000001e-01  1.3031699999999999e-01 1.9758800000000001e-01 -9.0219899999999997e-01    -8.7188270000000001e-01
    7 1  5.4881799999999998e+00 0.0000000000000000e+00 3.0236399999999999e+00  -2.8789900000000002e-01 2.5250099999999998e-01 -1.1412789999999999e+00    -8.6396459999999997e-01
    8 1  2.6881800000000000e+00 2.9118200000000001e+00 2.6881800000000000e+00  2.8822900000000001e-01 -1.3387590000000000e+00 -3.3971000000000001e-02    -8.6039410000000005e-01
 Energy
    -2.5880653490000000e+01
 PlusStress:  xx          yy          zz          yz          xz          xy
     2.9025300000000001e+00 7.2515999999999998e+00 5.5923800000000004e+00 -1.3481700000000001e+00 -4.6704000000000001e-01 -9.7316000000000003e-01
END_CFG

