BEGIN_CFG
 Size
    8
 Supercell
    5.5999999999999996e+00 0.0000000000000000e+00 0.0000000000000000e+00
    0.0000000000000000e+00 5.5999999999999996e+00 0.0000000000000000e+00
    0.0000000000000000e+00 0.0000000000000000e+00 5.5999999999999996e+00
 AtomData:  id type       cartes_x      cartes_y      cartes_z           fx          fy          fz      charge
    1 0  5.3763600000000000e+00 5.3763600000000000e+00 5.3763600000000000e+00  6.3083999999999996e-01 7.0589400000000002e-01 4.0264600000000000e-01    8.6105929999999997e-01
    2 0  2.7999999999999998e+00 2.7999999999999998e+00 5.4881799999999998e+00  -4.1305799999999998e-01 -4.2229000000000000e-01 2.3606900000000000e-01    8.6636510000000000e-01
    3 0  5.3763600000000000e+00 2.6881800000000000e+00 3.0236399999999999e+00  3.4634900000000002e-01 1.5184200000000000e-01 -3.2634400000000002e-01    8.6703240000000004e-01
    4 0  2.4645500000000000e+00 0.0000000000000000e+00 2.6881800000000000e+00  1.7446100000000000e-01 -6.4522800000000002e-01 2.1413399999999999e-01    8.6349100000000001e-01
    5 1  5.3763600000000000e+00 2.9118200000000001e+00 1.1182000000000000e-01  7.0954899999999999e-01 -8.8512999999999997e-01 4.1970000000000000e-02    -8.6510779999999998e-01
    6 1  2.9118200000000001e+00 5.3763600000000000e+00 1.1182000000000000e-01  -1.0478540000000001e+00 4.9085099999999998e-01 -3.9521699999999998e-01    -8.6619250000000003e-01
    7 1  5.3763600000000000e+00 0.0000000000000000e+00 2.7999999999999998e+00  1.7844299999999999e-01 -2.7646999999999999e-01 -1.9764899999999999e-01    -8.6385360000000000e-01
    8 1  2.7999999999999998e+00 2.4645500000000000e+00 2.7999999999999998e+00  -5.7873100000000000e-01 8.8053199999999998e-01 2.4390999999999999e-02    -8.6279079999999997e-01
 Energy
    -2.6341218189999999e+01
 PlusStress:  xx          yy          zz          yz          xz          xy
     4.0494500000000002e+00 4.7084999999999999e+00 2.4627500000000002e+00 8.4500000000000006e-02 -2.6923000000000002e-01 6.3130000000000006e-02
END_CFG

BEGIN_CFG
 Size
    8
 Supercell
    5.5999999999999996e+00 0.0000000000000000e+00 0.0000000000000000e+00
    0.0000000000000000e+00 5.5999999999999996e+00 0.0000000000000000e+00
    0.0000000000000000e+00 0.0000000000000000e+00 5.5999999999999996e+00
 AtomData:  id type       cartes_x      cartes_y      cartes_z           fx          fy          fz      charge
    1 0  5.3763600000000000e+00 2.2364000000000001e-01 5.2645499999999998e+00  -1.5930000000000000e-01 -6.6064299999999998e-01 6.8068799999999996e-01    8.6914409999999998e-01
    2 0  2.4645500000000000e+00 2.9118200000000001e+00 1.1182000000000000e-01  6.3790800000000003e-01 -4.1853600000000002e-01 -2.6935999999999999e-01    8.6753499999999995e-01
    3 0  5.2645499999999998e+00 3.0236399999999999e+00 2.9118200000000001e+00  1.8532789999999999e+00 -1.1103440000000000e+00 -4.0713700000000003e-01    8.5034699999999996e-01
    4 0  2.5763600000000002e+00 5.3763600000000000e+00 2.5763600000000002e+00  1.1107000000000001e-02 4.1434100000000001e-01 7.6471900000000004e-01    8.6763820000000003e-01
    5 1  0.0000000000000000e+00 2.6881800000000000e+00 5.3763600000000000e+00  -5.7289900000000005e-01 5.6224900000000000e-01 6.6842199999999996e-01    -8.6417379999999999e-01
    6 1  2.4645500000000000e+00 5.4881799999999998e+00 1.1182000000000000e-01  2.8040300000000001e-01 4.8383999999999999e-01 -8.9166000000000001e-01    -8.6896200000000001e-01
    7 1  5.3763600000000000e+00 5.3763600000000000e+00 2.7999999999999998e+00  2.2812900000000000e-01 1.3900740000000000e+00 -6.7488800000000004e-01    -8.5830989999999996e-01
    8 1  3.0236399999999999e+00 2.7999999999999998e+00 2.6881800000000000e+00  -2.2786290000000000e+00 -6.6098100000000004e-01 1.2921600000000000e-01    -8.6321680000000001e-01
 Energy
    -2.5729902840000001e+01
 PlusStress:  xx          yy          zz          yz          xz          xy
     6.6739699999999997e+00 6.8416699999999997e+00 5.0948300000000000e+00 -1.0702000000000000e-01 1.2172700000000001e+00 8.5795999999999994e-01
END_CFG

BEGIN_CFG
 Size
    8
 Supercell
    5.5999999999999996e+00 0.0000000000000000e+00 0.0000000000000000e+00
    0.0000000000000000e+00 5.5999999999999996e+00 0.0000000000000000e+00
    0.0000000000000000e+00 0.0000000000000000e+00 5.5999999999999996e+00
 AtomData:  id type       cartes_x      cartes_y      cartes_z           fx          fy          fz      charge
    1 0  0.0000000000000000e+00 5.4881799999999998e+00 2.2364000000000001e-01  -2.9284000000000001e-02 7.6846800000000004e-01 -2.1069900000000001e+00    8.5588710000000001e-01
    2 0  3.0236399999999999e+00 3.0236399999999999e+00 2.2364000000000001e-01  -1.1715900000000000e-01 -9.4773399999999997e-01 -1.4477730000000000e+00    8.5531290000000004e-01
    3 0  5.2645499999999998e+00 2.5763600000000002e+00 2.6881800000000000e+00  4.2742300000000000e-01 6.7768999999999996e-02 6.4481100000000002e-01    8.6827719999999997e-01
    4 0  2.4645500000000000e+00 2.2364000000000001e-01 2.4645500000000000e+00  -8.3580000000000008e-03 -1.4034110000000000e+00 2.0273700000000000e-01    8.6372409999999999e-01
    5 1  0.0000000000000000e+00 3.0236399999999999e+00 2.2364000000000001e-01  1.9590700000000000e-01 -1.3462069999999999e+00 -1.0849920000000000e+00    -8.6148150000000001e-01
    6 1  2.5763600000000002e+00 5.2645499999999998e+00 5.2645499999999998e+00  1.3917900000000000e-01 1.6398020000000000e+00 -2.4173000000000000e-01    -8.6943490000000001e-01
    7 1  5.2645499999999998e+00 5.3763600000000000e+00 2.4645500000000000e+00  -1.2343000000000000e-01 3.8059399999999999e-01 2.2636229999999999e+00    -8.5833360000000003e-01
    8 1  2.6881800000000000e+00 2.5763600000000002e+00 2.4645500000000000e+00  -4.8427999999999999e-01 8.4072000000000002e-01 1.7703139999999999e+00    -8.5394919999999996e-01
 Energy
    -2.5183523380000000e+01
 PlusStress:  xx          yy          zz          yz          xz          xy
     3.6250800000000001e+00 8.4926499999999994e+00 9.8707999999999991e+00 -1.4412100000000001e+00 -1.1923200000000000e+00 -2.3244999999999999e-01
END_CFG

BEGIN_CFG
 Size
    8
 Supercell
    5.5999999999999996e+00 0.0000000000000000e+00 0.0000000000000000e+00
    0.0000000000000000e+00 5.5999999999999996e+00 0.0000000000000000e+00
    0.0000000000000000e+00 0.0000000000000000e+00 5.5999999999999996e+00
 AtomData:  id type       cartes_x      cartes_y      cartes_z           fx          fy          fz      charge
    1 0  5.2645499999999998e+00 5.4881799999999998e+00 5.2645499999999998e+00  1.2354190000000000e+00 2.9579499999999997e-01 6.5420999999999996e-01    8.5855689999999996e-01
    2 0  2.5763600000000002e+00 3.0236399999999999e+00 0.0000000000000000e+00  3.7339000000000000e-01 -2.0259800000000000e-01 -7.2009000000000004e-02    8.6874180000000001e-01
    3 0  5.3763600000000000e+00 2.5763600000000002e+00 2.4645500000000000e+00  3.9487499999999998e-01 -1.1675099999999999e-01 4.8454999999999998e-02    8.7144189999999999e-01
    4 0  2.4645500000000000e+00 5.2645499999999998e+00 3.0236399999999999e+00  2.2285270000000001e+00 3.1269400000000003e-01 -7.7226000000000003e-02    8.6013220000000001e-01
    5 1  0.0000000000000000e+00 2.9118200000000001e+00 5.2645499999999998e+00  -2.7021099999999998e-01 -5.7068500000000000e-01 3.9961200000000002e-01    -8.6439969999999999e-01
    6 1  3.0236399999999999e+00 2.2364000000000001e-01 2.2364000000000001e-01  -1.5166670000000000e+00 -2.4630099999999999e-01 -1.6566999999999998e-02    -8.7264439999999999e-01
    7 1  2.2364000000000001e-01 5.2645499999999998e+00 2.9118200000000001e+00  -2.1237840000000001e+00 3.7825999999999999e-01 -1.2066630000000000e+00    -8.5415969999999997e-01
    8 1  2.7999999999999998e+00 2.5763600000000002e+00 2.6881800000000000e+00  -3.2154899999999997e-01 1.4958600000000000e-01 2.7018700000000001e-01    -8.6766620000000005e-01
 Energy
    -2.5737145020000000e+01
 PlusStress:  xx          yy          zz          yz          xz          xy
     9.6907700000000006e+00 1.9388500000000000e+00 3.3414899999999998e+00 -1.0059999999999999e-01 -1.1177100000000000e+00 -5.9750999999999999e-01
END_CFG

BEGIN_CFG
 Size
    8
 Supercell
    5.5999999999999996e+00 0.0000000000000000e+00 0.0000000000000000e+00
    0.0000000000000000e+00 5.5999999999999996e+00 0.0000000000000000e+00
    0.0000000000000000e+00 0.0000000000000000e+00 5.5999999999999996e+00
 AtomData:  id type       cartes_x      cartes_y      cartes_z           fx          fy          fz      charge
    1 0  5.3763600000000000e+00 2.2364000000000001e-01 0.0000000000000000e+00  4.8230800000000001e-01 -1.2645439999999999e+00 -6.7810899999999996e-01    8.5569059999999997e-01
    2 0  2.6881800000000000e+00 2.5763600000000002e+00 0.0000000000000000e+00  3.0806499999999998e-01 2.0503099999999999e-01 5.3819999999999996e-03    8.6738249999999995e-01
    3 0  5.2645499999999998e+00 2.4645500000000000e+00 2.7999999999999998e+00  6.2673999999999994e-02 8.8948300000000002e-01 1.4619900000000000e-01    8.6560910000000002e-01
    4 0  2.4645500000000000e+00 2.2364000000000001e-01 2.7999999999999998e+00  1.6179800000000000e-01 -1.0104629999999999e+00 -1.4078599999999999e-01    8.6842989999999998e-01
    5 1  1.1182000000000000e-01 2.5763600000000002e+00 1.1182000000000000e-01  -5.1977799999999996e-01 1.2026610000000000e+00 -4.2717400000000000e-01    -8.6190940000000005e-01
    6 1  2.9118200000000001e+00 5.3763600000000000e+00 5.4881799999999998e+00  -7.6379600000000003e-01 9.8838999999999996e-02 -2.0825000000000000e-02    -8.6995549999999999e-01
    7 1  5.3763600000000000e+00 0.0000000000000000e+00 2.4645500000000000e+00  -3.9348000000000001e-02 -7.9511399999999999e-01 1.0571170000000001e+00    -8.6300980000000005e-01
    8 1  2.4645500000000000e+00 2.6881800000000000e+00 2.7999999999999998e+00  3.0807699999999999e-01 6.7410800000000004e-01 5.8196999999999999e-02    -8.6223329999999998e-01
 Energy
    -2.6131759779999999e+01
 PlusStress:  xx          yy          zz          yz          xz          xy
     3.1882999999999999e+00 6.3163600000000004e+00 3.1293400000000000e+00 -1.4005999999999999e-01 1.9928000000000001e-01 7.6119999999999999e-01
END_CFG

BEGIN_CFG
 Size
    8
 Supercell
    5.5999999999999996e+00 0.0000000000000000e+00 0.0000000000000000e+00
    0.0000000000000000e+00 5.5999999999999996e+00 0.0000000000000000e+00
    0.0000000000000000e+00 0.0000000000000000e+00 5.5999999999999996e+00
 AtomData:  id type       cartes_x      cartes_y      cartes_z           fx          fy          fz      charge
    1 0  2.2364000000000001e-01 5.2645499999999998e+00 0.0000000000000000e+00  -6.3525900000000002e-01 6.1671699999999996e-01 -5.4635000000000000e-01    8.6357539999999999e-01
    2 0  2.6881800000000000e+00 2.7999999999999998e+00 5.4881799999999998e+00  -9.4238000000000002e-02 -8.7325000000000000e-02 6.0349500000000000e-01    8.6152130000000005e-01
    3 0  5.4881799999999998e+00 2.6881800000000000e+00 2.6881800000000000e+00  -1.4545000000000000e-01 5.1698299999999997e-01 -5.6008000000000002e-02    8.6735039999999997e-01
    4 0  2.9118200000000001e+00 5.4881799999999998e+00 2.5763600000000002e+00  7.6024999999999995e-02 -1.8974999999999999e-02 1.1152200000000000e-01    8.7217480000000003e-01
    5 1  5.3763600000000000e+00 2.7999999999999998e+00 5.3763600000000000e+00  1.5255199999999999e-01 -3.7917200000000001e-01 3.6175800000000002e-01    -8.6634199999999995e-01
    6 1  2.6881800000000000e+00 0.0000000000000000e+00 5.3763600000000000e+00  7.6266100000000003e-01 -1.8902099999999999e-01 2.0295199999999999e-01    -8.6316349999999997e-01
    7 1  2.2364000000000001e-01 2.2364000000000001e-01 2.4645500000000000e+00  -5.5630900000000005e-01 -1.0085580000000001e+00 5.2131799999999995e-01    -8.6814060000000004e-01
    8 1  2.5763600000000002e+00 2.5763600000000002e+00 3.0236399999999999e+00  4.4001899999999999e-01 5.4935199999999995e-01 -1.1986880000000000e+00    -8.6697709999999995e-01
 Energy
    -2.6235463159999998e+01
 PlusStress:  xx          yy          zz          yz          xz          xy
     3.1695099999999998e+00 3.7850500000000000e+00 3.7104400000000002e+00 7.4392999999999998e-01 1.5026000000000000e-01 1.8579999999999999e-01
END_CFG

BEGIN_CFG
 Size
    8
 Supercell
    5.5999999999999996e+00 0.0000000000000000e+00 0.0000000000000000e+00
    0.0000000000000000e+00 5.5999999999999996e+00 0.0000000000000000e+00
    0.0000000000000000e+00 0.0000000000000000e+00 5.5999999999999996e+00
 AtomData:  id type       cartes_x      cartes_y      cartes_z           fx          fy          fz      charge
    1 0  5.3763600000000000e+00 0.0000000000000000e+00 5.4881799999999998e+00  1.2616630000000000e+00 -1.0407500000000000e-01 4.2073300000000002e-01    8.6433970000000004e-01
    2 0  2.4645500000000000e+00 2.7999999999999998e+00 0.0000000000000000e+00  1.9393570000000000e+00 1.4914700000000000e-01 5.6694100000000003e-01    8.6070610000000003e-01
    3 0  5.3763600000000000e+00 2.4645500000000000e+00 2.7999999999999998e+00  -1.7311000000000001e-01 1.2431650000000001e+00 -5.1802700000000002e-01    8.6358749999999995e-01
    4 0  2.7999999999999998e+00 5.2645499999999998e+00 2.9118200000000001e+00  -4.2286000000000001e-01 4.6406000000000003e-02 -4.8038199999999998e-01    8.7117699999999998e-01
    5 1  2.2364000000000001e-01 2.7999999999999998e+00 5.2645499999999998e+00  -2.3392559999999998e+00 3.0671700000000002e-01 9.8954600000000004e-01    -8.6403850000000004e-01
    6 1  3.0236399999999999e+00 2.2364000000000001e-01 5.3763600000000000e+00  -1.3976900000000001e+00 -6.1738199999999999e-01 1.0380720000000001e+00    -8.6448700000000001e-01
    7 1  5.3763600000000000e+00 1.1182000000000000e-01 2.9118200000000001e+00  4.6743000000000001e-01 -1.6140159999999999e+00 -8.3351900000000001e-01    -8.6385270000000003e-01
    8 1  2.4645500000000000e+00 2.4645500000000000e+00 3.0236399999999999e+00  6.6446600000000000e-01 5.9003700000000003e-01 -1.1833650000000000e+00    -8.6742929999999996e-01
 Energy
    -2.5362443100000000e+01
 PlusStress:  xx          yy          zz          yz          xz          xy
     9.2728800000000007e+00 4.2141500000000001e+00 5.2368300000000003e+00 2.5178000000000000e-01 3.6083999999999999e-01 -6.2875000000000003e-01
END_CFG

BEGIN_CFG
 Size
    8
 Supercell
    5.5999999999999996e+00 0.0000000000000000e+00 0.0000000000000000e+00
    0.0000000000000000e+00 5.5999999999999996e+00 0.0000000000000000e+00
    0.0000000000000000e+00 0.0000000000000000e+00 5.5999999999999996e+00
 AtomData:  id type       cartes_x      cartes_y      cartes_z           fx          fy          fz      charge
    1 0  2.2364000000000001e-01 1.1182000000000000e-01 2.2364000000000001e-01  -1.4452100000000001e-01 -1.2744000000000000e-02 -2.9070400000000002e-01    8.6959160000000002e-01
    2 0  3.0236399999999999e+00 2.7999999999999998e+00 1.1182000000000000e-01  -1.6825899999999999e-01 -3.4631099999999998e-01 -1.9432700000000000e-01    8.6949580000000004e-01
    3 0  2.2364000000000001e-01 3.0236399999999999e+00 2.5763600000000002e+00  -2.1780070000000000e+00 2.1298999999999998e-02 3.7686700000000001e-01    8.6092670000000004e-01
    4 0  2.5763600000000002e+00 0.0000000000000000e+00 2.9118200000000001e+00  2.0019100000000001e-01 1.8989200000000001e-01 -5.6228000000000000e-02    8.6929860000000003e-01
    5 1  1.1182000000000000e-01 2.9118200000000001e+00 0.0000000000000000e+00  5.4406999999999997e-02 -1.4093200000000000e-01 -2.6718300000000000e-01    -8.6478460000000001e-01
    6 1  3.0236399999999999e+00 5.3763600000000000e+00 0.0000000000000000e+00  -3.2992100000000002e-01 7.5125699999999995e-01 2.3655899999999999e-01    -8.7052470000000004e-01
    7 1  5.3763600000000000e+00 2.2364000000000001e-01 2.9118200000000001e+00  2.6657100000000000e-01 -1.0143500000000000e-01 -5.9754000000000002e-02    -8.7037370000000003e-01
    8 1  2.4645500000000000e+00 2.9118200000000001e+00 2.7999999999999998e+00  2.2995380000000001e+00 -3.6102600000000001e-01 2.5476900000000002e-01    -8.6362629999999996e-01
 Energy
    -2.6284532850000002e+01
 PlusStress:  xx          yy          zz          yz          xz          xy
     5.8058800000000002e+00 1.7713099999999999e+00 2.2827199999999999e+00 -7.2499999999999995e-02 5.8825000000000005e-01 1.7827000000000001e-01
END_CFG

BEGIN_CFG
 Size
    8
 Supercell
    5.5999999999999996e+00 0.0000000000000000e+00 0.0000000000000000e+00
    0.0000000000000000e+00 5.5999999999999996e+00 0.0000000000000000e+00
    0.0000000000000000e+00 0.0000000000000000e+00 5.5999999999999996e+00
 AtomData:  id type       cartes_x      cartes_y      cartes_z           fx          fy          fz      charge
    1 0  5.3763600000000000e+00 0.0000000000000000e+00 2.2364000000000001e-01  1.0336840000000000e+00 -1.3022600000000001e-01 -2.0669430000000002e+00    8.5743290000000005e-01
    2 0  2.7999999999999998e+00 2.9118200000000001e+00 5.2645499999999998e+00  2.9330999999999999e-02 -7.7390199999999998e-01 2.6228899999999999e-01    8.6617480000000002e-01
    3 0  5.4881799999999998e+00 2.7999999999999998e+00 2.9118200000000001e+00  7.0653100000000002e-01 1.2531999999999999e-01 -5.5079000000000003e-02    8.6760729999999997e-01
    4 0  3.0236399999999999e+00 0.0000000000000000e+00 2.5763600000000002e+00  -8.5468400000000000e-01 -3.8218099999999999e-01 7.1285000000000001e-02    8.6400969999999999e-01
    5 1  1.1182000000000000e-01 2.6881800000000000e+00 1.1182000000000000e-01  -1.9303000000000001e-02 2.8743700000000000e-01 -4.6568900000000002e-01    -8.6973780000000001e-01
    6 1  3.0236399999999999e+00 5.3763600000000000e+00 5.3763600000000000e+00  -1.1410629999999999e+00 6.4844500000000005e-01 -2.1879799999999999e-01    -8.6376779999999997e-01
    7 1  5.4881799999999998e+00 1.1182000000000000e-01 2.4645500000000000e+00  1.1345320000000001e+00 -3.7915800000000000e-01 2.4289580000000002e+00    -8.5848420000000003e-01
    8 1  3.0236399999999999e+00 2.5763600000000002e+00 2.5763600000000002e+00  -8.8902700000000001e-01 6.0426500000000005e-01 4.3977000000000002e-02    -8.6322980000000005e-01
 Energy
    -2.5862279390000001e+01
 PlusStress:  xx          yy          zz          yz          xz          xy
     6.1837400000000002e+00 3.6196500000000000e+00 6.0920699999999997e+00 1.9728000000000001e-01 4.9418000000000001e-01 4.6640999999999999e-01
END_CFG

BEGIN_CFG
 Size
    8
 Supercell
    5.5999999999999996e+00 0.0000000000000000e+00 0.0000000000000000e+00
    0.0000000000000000e+00 5.5999999999999996e+00 0.0000000000000000e+00
    0.0000000000000000e+00 0.0000000000000000e+00 5.5999999999999996e+00
 AtomData:  id type       cartes_x      cartes_y      cartes_z           fx          fy          fz      charge
    1 0  5.2645499999999998e+00 0.0000000000000000e+00 1.1182000000000000e-01  2.4332200000000001e-01 1.5494600000000000e-01 -3.1457700000000000e-01    8.7051259999999997e-01
    2 0  2.7999999999999998e+00 2.5763600000000002e+00 0.0000000000000000e+00  1.3167400000000001e-01 1.1897860000000000e+00 -2.4374699999999999e-01    8.6406329999999998e-01
    3 0  1.1182000000000000e-01 2.6881800000000000e+00 2.4645500000000000e+00  4.9300999999999998e-02 -7.8592999999999996e-02 2.0751900000000001e-01    8.6876120000000001e-01
    4 0  2.9118200000000001e+00 0.0000000000000000e+00 2.6881800000000000e+00  -1.3604000000000000e-02 -7.9328399999999999e-01 1.7718000000000001e-02    8.6550939999999998e-01
    5 1  1.1182000000000000e-01 3.0236399999999999e+00 5.2645499999999998e+00  -4.2861600000000000e-01 -5.4946499999999998e-01 4.3865900000000002e-01    -8.7133190000000005e-01
    6 1  2.4645500000000000e+00 2.2364000000000001e-01 5.3763600000000000e+00  4.7952400000000001e-01 -1.3396550000000000e+00 3.7172600000000000e-01    -8.6516709999999997e-01
    7 1  2.2364000000000001e-01 5.3763600000000000e+00 2.7999999999999998e+00  -6.1786900000000000e-01 3.6157899999999998e-01 -3.6047299999999999e-01    -8.6679090000000003e-01
    8 1  2.9118200000000001e+00 2.4645500000000000e+00 2.6881800000000000e+00  1.5626799999999999e-01 1.0546860000000000e+00 -1.1682500000000000e-01    -8.6555539999999997e-01
 Energy
    -2.6208530799999998e+01
 PlusStress:  xx          yy          zz          yz          xz          xy
     9.9326000000000003e-01 5.6329500000000001e+00 2.0211500000000000e+00 3.0376999999999998e-01 7.4569999999999997e-02 5.8299000000000001e-01
END_CFG

BEGIN_CFG
 Size
    8
 Supercell
    5.5999999999999996e+00 0.0000000000000000e+00 0.0000000000000000e+00
    0.0000000000000000e+00 5.5999999999999996e+00 0.0000000000000000e+00
    0.0000000000000000e+00 0.0000000000000000e+00 5.5999999999999996e+00
 AtomData:  id type       cartes_x      cartes_y      cartes_z           fx          fy          fz      charge
    1 0  0.0000000000000000e+00 5.2645499999999998e+00 5.2645499999999998e+00  -2.1796299999999999e-01 7.4127399999999999e-01 1.2631500000000001e-01    8.6753250000000004e-01
    2 0  2.5763600000000002e+00 2.7999999999999998e+00 5.4881799999999998e+00  1.8809500000000001e-01 3.1898700000000002e-01 2.6761499999999999e-01    8.6763290000000004e-01
    3 0  5.3763600000000000e+00 2.6881800000000000e+00 2.7999999999999998e+00  4.9998500000000001e-01 1.4164099999999999e-01 1.2389000000000001e-02    8.6512420000000001e-01
    4 0  3.0236399999999999e+00 2.2364000000000001e-01 2.9118200000000001e+00  -3.0333500000000002e-01 -1.2659970000000000e+00 -6.9627899999999998e-01    8.6137710000000001e-01
    5 1  5.4881799999999998e+00 2.7999999999999998e+00 1.1182000000000000e-01  -1.9798800000000000e-01 -4.3536799999999998e-01 -4.6372400000000003e-01    -8.6497809999999997e-01
    6 1  2.5763600000000002e+00 2.2364000000000001e-01 5.3763600000000000e+00  3.8396999999999998e-01 -7.8791999999999995e-01 6.0419900000000004e-01    -8.6614029999999997e-01
    7 1  0.0000000000000000e+00 0.0000000000000000e+00 2.4645500000000000e+00  1.3977100000000001e-01 -2.9955399999999999e-01 3.6998500000000001e-01    -8.7199199999999999e-01
    8 1  2.7999999999999998e+00 2.5763600000000002e+00 2.7999999999999998e+00  -4.9253400000000003e-01 1.5869370000000000e+00 -2.2050200000000000e-01    -8.5855490000000001e-01
 Energy
    -2.6223613400000001e+01
 PlusStress:  xx          yy          zz          yz          xz          xy
     2.7315999999999998e+00 5.8906200000000002e+00 2.7425999999999999e+00 -3.6636000000000002e-01 -2.8404000000000001e-01 -7.7579999999999996e-02
END_CFG

BEGIN_CFG
 Size
    8
 Supercell
    5.5999999999999996e+00 0.0000000000000000e+00 0.0000000000000000e+00
    0.0000000000000000e+00 5.5999999999999996e+00 0.0000000000000000e+00
    0.0000000000000000e+00 0.0000000000000000e+00 5.5999999999999996e+00
 AtomData:  id type       cartes_x      cartes_y      cartes_z           fx          fy          fz      charge
    1 0  1.1182000000000000e-01 2.2364000000000001e-01 5.4881799999999998e+00  1.2367499999999999e-01 -1.1769460000000000e+00 3.9041199999999998e-01    8.6460789999999998e-01
    2 0  3.0236399999999999e+00 2.5763600000000002e+00 5.3763600000000000e+00  -5.8453100000000002e-01 -1.4161899999999999e-01 1.2407140000000001e+00    8.5821340000000002e-01
    3 0  5.4881799999999998e+00 2.9118200000000001e+00 2.5763600000000002e+00  4.7813499999999998e-01 -4.7166400000000003e-01 1.0633500000000000e+00    8.6135770000000000e-01
    4 0  2.4645500000000000e+00 5.2645499999999998e+00 2.7999999999999998e+00  3.7078299999999997e-01 3.2367699999999999e-01 -1.2769000000000000e-01    8.7090690000000004e-01
    5 1  5.4881799999999998e+00 2.5763600000000002e+00 2.2364000000000001e-01  8.9899700000000005e-01 8.7236300000000000e-01 -9.3876999999999999e-01    -8.5652899999999998e-01
    6 1  3.0236399999999999e+00 5.2645499999999998e+00 5.4881799999999998e+00  -6.6000199999999998e-01 4.1783399999999998e-01 5.1679100000000000e-01    -8.7326640000000000e-01
    7 1  5.3763600000000000e+00 5.3763600000000000e+00 3.0236399999999999e+00  3.8627299999999998e-01 6.2248800000000004e-01 -7.1049099999999998e-01    -8.6297970000000002e-01
    8 1  3.0236399999999999e+00 2.6881800000000000e+00 3.0236399999999999e+00  -1.0133300000000001e+00 -4.4613399999999998e-01 -1.4343170000000001e+00    -8.6231000000000002e-01
 Energy
    -2.5719318350000002e+01
 PlusStress:  xx          yy          zz          yz          xz          xy
     3.4983499999999998e+00 5.3710500000000003e+00 7.6930699999999996e+00 1.1349300000000000e+00 -3.5599999999999998e-03 -2.9640000000000000e-02
END_CFG

BEGIN_CFG
 Size
    8
 Supercell
    5.5999999999999996e+00 0.0000000000000000e+00 0.0000000000000000e+00
    0.0000000000000000e+00 5.5999999999999996e+00 0.0000000000000000e+00
    0.0000000000000000e+00 0.0000000000000000e+00 5.5999999999999996e+00
 AtomData:  id type       cartes_x      cartes_y      cartes_z           fx          fy          fz      charge
    1 0  5.2645499999999998e+00 0.0000000000000000e+00 5.2645499999999998e+00  8.5901700000000003e-01 -2.7780300000000002e-01 2.7408800000000000e-01    8.6382930000000002e-01
    2 0  3.0236399999999999e+00 2.5763600000000002e+00 5.2645499999999998e+00  -4.7563499999999997e-01 1.9081999999999998e-02 2.2692899999999999e-01    8.6614990000000003e-01
    3 0  5.2645499999999998e+00 2.7999999999999998e+00 3.0236399999999999e+00  6.9059800000000005e-01 1.2079500000000000e-01 -8.3995600000000004e-01    8.6262039999999995e-01
    4 0  2.7999999999999998e+00 5.3763600000000000e+00 2.4645500000000000e+00  -7.8045699999999996e-01 5.0080000000000003e-03 3.1072300000000003e-01    8.6346630000000002e-01
    5 1  1.1182000000000000e-01 2.5763600000000002e+00 5.4881799999999998e+00  4.0554000000000000e-02 4.5284000000000002e-01 3.0625200000000002e-01    -8.6285219999999996e-01
    6 1  2.7999999999999998e+00 5.3763600000000000e+00 5.4881799999999998e+00  -7.1204800000000001e-01 -7.3532000000000000e-02 -6.1248999999999998e-01    -8.6500010000000005e-01
    7 1  5.2645499999999998e+00 1.1182000000000000e-01 2.5763600000000002e+00  9.4780100000000000e-01 -4.7011599999999998e-01 8.4879999999999997e-02    -8.6410949999999997e-01
    8 1  2.7999999999999998e+00 2.5763600000000002e+00 2.4645500000000000e+00  -5.6983099999999998e-01 2.2372500000000001e-01 2.4957399999999999e-01    -8.6410120000000001e-01
 Energy
    -2.6271242460000000e+01
 PlusStress:  xx          yy          zz          yz          xz          xy
     5.0246700000000004e+00 2.0011199999999998e+00 3.2585199999999999e+00 -7.8560000000000005e-02 1.5384000000000000e-01 3.5733999999999999e-01
END_CFG

BEGIN_CFG
 Size
    8
 Supercell
    5.5999999999999996e+00 0.0000000000000000e+00 0.0000000000000000e+00
    0.0000000000000000e+00 5.5999999999999996e+00 0.0000000000000000e+00
    0.0000000000000000e+00 0.0000000000000000e+00 5.5999999999999996e+00
 AtomData:  id type       cartes_x      cartes_y      cartes_z           fx          fy          fz      charge
    1 0  2.2364000000000001e-01 0.0000000000000000e+00 5.3763600000000000e+00  -1.2695050000000001e+00 -3.0744500000000002e-01 2.2122300000000000e-01    8.6439040000000000e-01
    2 0  2.7999999999999998e+00 2.6881800000000000e+00 5.3763600000000000e+00  9.6291000000000002e-02 7.6266699999999998e-01 5.3047999999999998e-02    8.6330269999999998e-01
    3 0  5.2645499999999998e+00 2.5763600000000002e+00 2.9118200000000001e+00  4.9767800000000001e-01 1.3761499999999999e-01 -8.4153000000000006e-02    8.6883639999999995e-01
    4 0  2.9118200000000001e+00 1.1182000000000000e-01 2.7999999999999998e+00  -6.7522000000000004e-01 -2.4286400000000000e-01 -7.7121499999999998e-01    8.6345629999999995e-01
    5 1  1.1182000000000000e-01 2.6881800000000000e+00 2.2364000000000001e-01  -5.1617000000000002e-01 2.0965600000000001e-01 -7.7183500000000005e-01    -8.6991320000000005e-01
    6 1  2.5763600000000002e+00 2.2364000000000001e-01 5.2645499999999998e+00  1.3410110000000000e+00 -8.3705900000000000e-01 5.2025500000000002e-01    -8.5516130000000001e-01
    7 1  5.3763600000000000e+00 5.3763600000000000e+00 2.5763600000000002e+00  6.5545399999999998e-01 1.7109900000000000e-01 2.6119100000000001e-01    -8.6964290000000000e-01
    8 1  2.6881800000000000e+00 2.7999999999999998e+00 2.4645500000000000e+00  -1.2953799999999999e-01 1.0633099999999999e-01 5.7148699999999997e-01    -8.6526630000000004e-01
 Energy
    -2.6128290730000000e+01
 PlusStress:  xx          yy          zz          yz          xz          xy
     5.8937400000000002e+00 2.9266299999999998e+00 2.4199299999999999e+00 3.5737999999999998e-01 -6.2046000000000001e-01 5.9720000000000002e-02
END_CFG

BEGIN_CFG
 Size
    8
 Supercell
    5.5999999999999996e+00 0.0000000000000000e+00 0.0000000000000000e+00
    0.0000000000000000e+00 5.5999999999999996e+00 0.0000000000000000e+00
    0.0000000000000000e+00 0.0000000000000000e+00 5.5999999999999996e+00
 AtomData:  id type       cartes_x      cartes_y      cartes_z           fx          fy          fz      charge
    1 0  5.4881799999999998e+00 0.0000000000000000e+00 5.4881799999999998e+00  -2.7635599999999999e-01 4.8995400000000000e-01 5.5247599999999997e-01    8.6202909999999999e-01
    2 0  2.9118200000000001e+00 3.0236399999999999e+00 1.1182000000000000e-01  -4.0222100000000000e-01 -2.7429199999999998e-01 -4.7525499999999998e-01    8.6610410000000004e-01
    3 0  1.1182000000000000e-01 2.9118200000000001e+00 2.5763600000000002e+00  -6.1513499999999999e-01 -1.0212270000000001e+00 -1.9877800000000001e-01    8.6067410000000000e-01
    4 0  2.7999999999999998e+00 5.3763600000000000e+00 2.5763600000000002e+00  -1.3312900000000000e-01 2.6863199999999998e-01 7.5215100000000001e-01    8.6708470000000004e-01
    5 1  5.4881799999999998e+00 3.0236399999999999e+00 5.2645499999999998e+00  1.1329100000000000e-01 -8.8042799999999999e-01 7.9814200000000002e-01    -8.5873790000000005e-01
    6 1  2.4645500000000000e+00 1.1182000000000000e-01 1.1182000000000000e-01  6.0334200000000004e-01 9.3813999999999995e-02 -5.6331900000000001e-01    -8.6487660000000000e-01