BEGIN_CFG
 Size
    8
 Supercell
    5.5999999999999996e+00 0.0000000000000000e+00 0.0000000000000000e+00
    0.0000000000000000e+00 5.5999999999999996e+00 0.0000000000000000e+00
    0.0000000000000000e+00 0.0000000000000000e+00 5.5999999999999996e+00
 AtomData:  id type       cartes_x      cartes_y      cartes_z      charge
    1 0  0.0000000000000000e+00 0.0000000000000000e+00 0.0000000000000000e+00    1.0000000000000000e+00
    2 0  2.7999999999999998e+00 2.7999999999999998e+00 0.0000000000000000e+00    1.0000000000000000e+00
    3 0  0.0000000000000000e+00 2.7999999999999998e+00 2.7999999999999998e+00    1.0000000000000000e+00
    4 0  2.7999999999999998e+00 0.0000000000000000e+00 2.7999999999999998e+00    1.0000000000000000e+00
    5 1  0.0000000000000000e+00 2.7999999999999998e+00 0.0000000000000000e+00    -1.0000000000000000e+00
    6 1  2.7999999999999998e+00 0.0000000000000000e+00 0.0000000000000000e+00    -1.0000000000000000e+00
    7 1  0.0000000000000000e+00 0.0000000000000000e+00 2.7999999999999998e+00    -1.0000000000000000e+00
    8 1  2.7999999999999998e+00 2.7999999999999998e+00 2.7999999999999998e+00    -1.0000000000000000e+00
END_CFG

