BEGIN_CFG
 Size
    8
 Supercell
    5.5405146396593068e+00 0.0000000000000000e+00 0.0000000000000000e+00
    0.0000000000000000e+00 5.5405146396593068e+00 0.0000000000000000e+00
    0.0000000000000000e+00 0.0000000000000000e+00 5.5405146396593068e+00
 AtomData:  id type       cartes_x      cartes_y      cartes_z      charge
    1 1  6.9256432995741343e-02 6.9256432995741335e-01 3.0472830518126193e+00    -8.6510779999999998e-01
    2 1  3.2550523507998430e+00 6.9256432995741343e-02 3.2550523507998430e+00    -8.6619250000000003e-01
    3 1  2.0776929898722399e-01 3.2550523507998430e+00 2.9087701858211363e+00    -8.6385360000000000e-01
    4 1  3.3935652167913259e+00 3.3243087837955838e+00 3.4628216497870667e+00    -8.6279079999999997e-01
    5 0  2.7702573198296537e-01 4.8479503097018928e-01 5.5405146396593075e-01    8.6105929999999997e-01
    6 0  3.1857959178041009e+00 2.7702573198296537e-01 4.1553859797444798e-01    8.6636510000000000e-01
    7 0  4.8479503097018928e-01 2.9780266188168771e+00 6.9256432995741335e-01    8.6703240000000004e-01
    8 0  2.9087701858211363e+00 2.9780266188168771e+00 5.5405146396593075e-01    8.6349100000000001e-01
END_CFG

