BEGIN_CFG
 Size
    8
 Supercell
    5.5999999999999996e+00 0.0000000000000000e+00 0.0000000000000000e+00
    0.0000000000000000e+00 5.5999999999999996e+00 0.0000000000000000e+00
    0.0000000000000000e+00 0.0000000000000000e+00 5.5999999999999996e+00
 AtomData:  id type       cartes_x      cartes_y      cartes_z           fx          fy          fz      charge
    1 0  5.3763600000000000e+00 5.3763600000000000e+00 5.3763600000000000e+00  6.4377351900000002e-01 7.1486769600000000e-01 4.1095498300000000e-01    8.6105929999999997e-01
    2 0  2.7999999999999998e+00 2.7999999999999998e+00 5.4881799999999998e+00  -4.5524375000000000e-01 -4.3174299300000002e-01 2.5776873200000000e-01    8.6636510000000000e-01
    3 0  5.3763600000000000e+00 2.6881800000000000e+00 3.0236399999999999e+00  3.5967090400000001e-01 1.6225302300000000e-01 -3.4535095399999999e-01    8.6703240000000004e-01
    4 0  2.4645500000000000e+00 0.0000000000000000e+00 2.6881800000000000e+00  1.9607464699999999e-01 -6.4133976900000000e-01 2.2197150700000001e-01    8.6349100000000001e-01
    5 1  5.3763600000000000e+00 2.9118200000000001e+00 1.1182000000000000e-01  7.0212580999999996e-01 -9.2120294599999997e-01 -1.5972066100000001e-03    -8.6510779999999998e-01
    6 1  2.9118200000000001e+00 5.3763600000000000e+00 1.1182000000000000e-01  -1.1006628100000000e+00 4.7346796600000002e-01 -4.0528314799999998e-01    -8.6619250000000003e-01
    7 1  5.3763600000000000e+00 0.0000000000000000e+00 2.7999999999999998e+00  2.3419160200000000e-01 -2.7196886900000000e-01 -1.7981111499999999e-01    -8.6385360000000000e-01
    8 1  2.7999999999999998e+00 2.4645500000000000e+00 2.7999999999999998e+00  -5.7992992399999999e-01 9.1566589200000004e-01 4.1347202100000001e-02    -8.6279079999999997e-01
 Energy
    -2.6345534048600001e+01
END_CFG

BEGIN_CFG
 Size
    8
 Supercell
    5.5999999999999996e+00 0.0000000000000000e+00 0.0000000000000000e+00
    0.0000000000000000e+00 5.5999999999999996e+00 0.0000000000000000e+00
    0.0000000000000000e+00 0.0000000000000000e+00 5.5999999999999996e+00
 AtomData:  id type       cartes_x      cartes_y      cartes_z           fx          fy          fz      charge
    1 0  5.2645499999999998e+00 2.2364000000000001e-01 1.1182000000000000e-01  7.5474988200000004e-01 3.5753451300000003e-02 -2.2278432800000000e-01    8.6923720000000004e-01
    2 0  3.0236399999999999e+00 3.0236399999999999e+00 5.4881799999999998e+00  -2.5249674500000002e-01 -1.1077292999999999e+00 -2.5443098500000000e-01    8.6433260000000001e-01
    3 0  5.3763600000000000e+00 2.9118200000000001e+00 2.6881800000000000e+00  4.0890862400000000e-01 -2.8741011200000000e-01 1.1723818699999999e-01    8.6845980000000000e-01
    4 0  2.4645500000000000e+00 1.1182000000000000e-01 3.0236399999999999e+00  1.0038827900000000e+00 -7.2770881399999998e-01 1.8843849800000001e-01    8.6475159999999995e-01
    5 1  1.1182000000000000e-01 3.0236399999999999e+00 0.0000000000000000e+00  -1.1244556999999999e-01 -4.2764573900000002e-01 -4.5782127099999997e-01    -8.7123940000000000e-01
    6 1  2.7999999999999998e+00 5.3763600000000000e+00 2.2364000000000001e-01  -4.9709826600000001e-01 1.1772387600000001e+00 -3.5557169799999999e-01    -8.6292840000000004e-01
    7 1  1.1182000000000000e-01 5.4881799999999998e+00 2.6881800000000000e+00  -1.2830037500000000e+00 3.8887278100000000e-01 4.3312457100000001e-01    -8.6204099999999995e-01
    8 1  2.7999999999999998e+00 2.4645500000000000e+00 2.4645500000000000e+00  -2.2496964800000002e-02 9.4862896900000004e-01 5.5180702500000001e-01    -8.7057459999999998e-01
 Energy
    -2.5959278216400001e+01
END_CFG

BEGIN_CFG
 Size
    8
 Supercell
    5.5999999999999996e+00 0.0000000000000000e+00 0.0000000000000000e+00
    0.0000000000000000e+00 5.5999999999999996e+00 0.0000000000000000e+00
    0.0000000000000000e+00 0.0000000000000000e+00 5.5999999999999996e+00
 AtomData:  id type       cartes_x      cartes_y      cartes_z           fx          fy          fz      charge
    1 0  5.2645499999999998e+00 2.2364000000000001e-01 0.0000000000000000e+00  1.9752160099999999e-01 -3.0074832000000001e-01 1.4227009800000001e-01    8.7064799999999998e-01
    2 0  2.7999999999999998e+00 2.5763600000000002e+00 2.2364000000000001e-01  3.1151308799999999e-01 3.4428192600000002e-01 -1.1958754500000000e+00    8.6466620000000005e-01
    3 0  1.1182000000000000e-01 2.9118200000000001e+00 2.6881800000000000e+00  -1.1144720299999999e+00 -3.5515461700000001e-01 5.2489305300000000e-01    8.6323000000000005e-01
    4 0  2.6881800000000000e+00 0.0000000000000000e+00 3.0236399999999999e+00  -2.0178338600000001e-01 -3.5105699899999998e-01 -2.0084762700000001e+00    8.6095400000000000e-01
    5 1  2.2364000000000001e-01 2.9118200000000001e+00 1.1182000000000000e-01  -9.6763837799999997e-01 -1.1893568700000000e-01 -5.7770332000000002e-01    -8.7034590000000001e-01
    6 1  2.4645500000000000e+00 0.0000000000000000e+00 5.2645499999999998e+00  1.3270978700000000e-01 -1.9314125700000001e-01 2.2676628399999998e+00    -8.6394139999999997e-01
    7 1  5.2645499999999998e+00 5.3763600000000000e+00 2.9118200000000001e+00  3.0342346900000000e-01 7.3256375299999998e-01 -3.5708112900000000e-01    -8.6595599999999995e-01
    8 1  2.4645500000000000e+00 2.5763600000000002e+00 2.5763600000000002e+00  1.3387258500000001e+00 2.4219120000000000e-01 1.2043101800000000e+00    -8.5925209999999996e-01
 Energy
    -2.5637716175900000e+01
END_CFG

BEGIN_CFG
 Size
    8
 Supercell
    5.5999999999999996e+00 0.0000000000000000e+00 0.0000000000000000e+00
    0.0000000000000000e+00 5.5999999999999996e+00 0.0000000000000000e+00
    0.0000000000000000e+00 0.0000000000000000e+00 5.5999999999999996e+00
 AtomData:  id type       cartes_x      cartes_y      cartes_z           fx          fy          fz      charge
    1 0  5.3763600000000000e+00 5.2645499999999998e+00 5.3763600000000000e+00  -2.3727831499999999e-01 1.5903335599999999e+00 1.0493465500000001e+00    8.5847969999999996e-01
    2 0  2.6881800000000000e+00 2.7999999999999998e+00 5.2645499999999998e+00  5.0811001099999997e-01 -1.7546701500000000e-01 5.6764412300000000e-01    8.6886030000000003e-01
    3 0  5.4881799999999998e+00 2.7999999999999998e+00 2.7999999999999998e+00  -3.1511371100000000e-03 -1.2553331300000001e-01 3.2991479300000001e-02    8.6787380000000003e-01
    4 0  2.4645500000000000e+00 5.2645499999999998e+00 2.6881800000000000e+00  1.8162366499999999e-01 1.2943439100000000e+00 5.3031995399999998e-01    8.6274969999999995e-01
    5 1  2.2364000000000001e-01 3.0236399999999999e+00 1.1182000000000000e-01  -6.5590477100000000e-01 -1.7046093600000001e+00 -3.6154879000000001e-02    -8.6172249999999995e-01
    6 1  2.6881800000000000e+00 0.0000000000000000e+00 2.2364000000000001e-01  1.4041129799999999e-01 2.1154602900000000e-01 -9.8010878999999995e-01    -8.7188270000000001e-01
    7 1  5.4881799999999998e+00 0.0000000000000000e+00 3.0236399999999999e+00  -2.6380120000000001e-01 2.8761926300000001e-01 -1.1937228799999999e+00    -8.6396459999999997e-01
    8 1  2.6881800000000000e+00 2.9118200000000001e+00 2.6881800000000000e+00  3.2999044900000002e-01 -1.3782330700000001e+00 2.9684439900000002e-02    -8.6039410000000005e-01
 Energy
    -2.5878335159599999e+01
END_CFG

