BEGIN_CFG
 Size
    64
 Supercell
    1.1081029279318614e+01 0.0000000000000000e+00 0.0000000000000000e+00
    0.0000000000000000e+00 1.1081029279318614e+01 0.0000000000000000e+00
    0.0000000000000000e+00 0.0000000000000000e+00 1.1081029279318614e+01
 AtomData:  id type       cartes_x      cartes_y      cartes_z      charge
    1 1  5.6097710726550476e+00 6.2330789696167201e+00 8.5877976914719252e+00    -8.6510779999999998e-01
    2 1  8.7955669904591485e+00 5.6097710726550476e+00 8.7955669904591485e+00    -8.6619250000000003e-01
    3 1  5.7482839386465319e+00 8.7955669904591485e+00 8.4492848254804418e+00    -8.6385360000000000e-01
    4 1  8.9340798564506319e+00 8.8648234234548919e+00 9.0033362894463735e+00    -8.6279079999999997e-01
    5 0  2.7702573198296537e-01 4.8479503097018928e-01 5.5405146396593075e-01    8.6105929999999997e-01
    6 0  3.1857959178041009e+00 2.7702573198296537e-01 4.1553859797444798e-01    8.6636510000000000e-01
    7 0  4.8479503097018928e-01 2.9780266188168771e+00 6.9256432995741335e-01    8.6703240000000004e-01
    8 0  2.9087701858211363e+00 2.9780266188168771e+00 5.5405146396593075e-01    8.6349100000000001e-01
    9 1  6.9256432995741343e-02 6.9256432995741335e-01 3.0472830518126193e+00    -8.6510779999999998e-01
    10 1  3.2550523507998430e+00 6.9256432995741343e-02 3.2550523507998430e+00    -8.6619250000000003e-01
    11 1  2.0776929898722399e-01 3.2550523507998430e+00 2.9087701858211363e+00    -8.6385360000000000e-01
    12 1  3.3935652167913259e+00 3.3243087837955838e+00 3.4628216497870667e+00    -8.6279079999999997e-01
    13 0  5.8175403716422727e+00 4.8479503097018928e-01 5.5405146396593075e-01    8.6105929999999997e-01
    14 0  8.7263105574634086e+00 2.7702573198296537e-01 4.1553859797444798e-01    8.6636510000000000e-01
    15 0  6.0253096706294951e+00 2.9780266188168771e+00 6.9256432995741335e-01    8.6703240000000004e-01
    16 0  8.4492848254804418e+00 2.9780266188168771e+00 5.5405146396593075e-01    8.6349100000000001e-01
    17 1  5.6097710726550476e+00 6.9256432995741335e-01 3.0472830518126193e+00    -8.6510779999999998e-01
    18 1  8.7955669904591485e+00 6.9256432995741343e-02 3.2550523507998430e+00    -8.6619250000000003e-01
    19 1  5.7482839386465319e+00 3.2550523507998430e+00 2.9087701858211363e+00    -8.6385360000000000e-01
    20 1  8.9340798564506319e+00 3.3243087837955838e+00 3.4628216497870667e+00    -8.6279079999999997e-01
    21 0  2.7702573198296537e-01 6.0253096706294951e+00 5.5405146396593075e-01    8.6105929999999997e-01
    22 0  3.1857959178041009e+00 5.8175403716422727e+00 4.1553859797444798e-01    8.6636510000000000e-01
    23 0  4.8479503097018928e-01 8.5185412584761853e+00 6.9256432995741335e-01    8.6703240000000004e-01
    24 0  2.9087701858211363e+00 8.5185412584761853e+00 5.5405146396593075e-01    8.6349100000000001e-01
    25 1  6.9256432995741343e-02 6.2330789696167201e+00 3.0472830518126193e+00    -8.6510779999999998e-01
    26 1  3.2550523507998430e+00 5.6097710726550476e+00 3.2550523507998430e+00    -8.6619250000000003e-01
    27 1  2.0776929898722399e-01 8.7955669904591485e+00 2.9087701858211363e+00    -8.6385360000000000e-01
    28 1  3.3935652167913259e+00 8.8648234234548919e+00 3.4628216497870667e+00    -8.6279079999999997e-01
    29 0  5.8175403716422727e+00 6.0253096706294951e+00 5.5405146396593075e-01    8.6105929999999997e-01
    30 0  8.7263105574634086e+00 5.8175403716422727e+00 4.1553859797444798e-01    8.6636510000000000e-01
    31 0  6.0253096706294951e+00 8.5185412584761853e+00 6.9256432995741335e-01    8.6703240000000004e-01
    32 0  8.4492848254804418e+00 8.5185412584761853e+00 5.5405146396593075e-01    8.6349100000000001e-01
    33 1  5.6097710726550476e+00 6.2330789696167201e+00 3.0472830518126193e+00    -8.6510779999999998e-01
    34 1  8.7955669904591485e+00 5.6097710726550476e+00 3.2550523507998430e+00    -8.6619250000000003e-01
    35 1  5.7482839386465319e+00 8.7955669904591485e+00 2.9087701858211363e+00    -8.6385360000000000e-01
    36 1  8.9340798564506319e+00 8.8648234234548919e+00 3.4628216497870667e+00    -8.6279079999999997e-01
    37 0  2.7702573198296537e-01 4.8479503097018928e-01 6.0945661036252385e+00    8.6105929999999997e-01
    38 0  3.1857959178041009e+00 2.7702573198296537e-01 5.9560532376337543e+00    8.6636510000000000e-01
    39 0  4.8479503097018928e-01 2.9780266188168771e+00 6.2330789696167201e+00    8.6703240000000004e-01
    40 0  2.9087701858211363e+00 2.9780266188168771e+00 6.0945661036252385e+00    8.6349100000000001e-01
    41 1  6.9256432995741343e-02 6.9256432995741335e-01 8.5877976914719252e+00    -8.6510779999999998e-01
    42 1  3.2550523507998430e+00 6.9256432995741343e-02 8.7955669904591485e+00    -8.6619250000000003e-01
    43 1  2.0776929898722399e-01 3.2550523507998430e+00 8.4492848254804418e+00    -8.6385360000000000e-01
    44 1  3.3935652167913259e+00 3.3243087837955838e+00 9.0033362894463735e+00    -8.6279079999999997e-01
    45 0  5.8175403716422727e+00 4.8479503097018928e-01 6.0945661036252385e+00    8.6105929999999997e-01
    46 0  8.7263105574634086e+00 2.7702573198296537e-01 5.9560532376337543e+00    8.6636510000000000e-01
    47 0  6.0253096706294951e+00 2.9780266188168771e+00 6.2330789696167201e+00    8.6703240000000004e-01
    48 0  8.4492848254804418e+00 2.9780266188168771e+00 6.0945661036252385e+00    8.6349100000000001e-01
    49 1  5.6097710726550476e+00 6.9256432995741335e-01 8.5877976914719252e+00    -8.6510779999999998e-01
    50 1  8.7955669904591485e+00 6.9256432995741343e-02 8.7955669904591485e+00    -8.6619250000000003e-01
    51 1  5.7482839386465319e+00 3.2550523507998430e+00 8.4492848254804418e+00    -8.6385360000000000e-01
    52 1  8.9340798564506319e+00 3.3243087837955838e+00 9.0033362894463735e+00    -8.6279079999999997e-01
    53 0  2.7702573198296537e-01 6.0253096706294951e+00 6.0945661036252385e+00    8.6105929999999997e-01
    54 0  3.1857959178041009e+00 5.8175403716422727e+00 5.9560532376337543e+00    8.6636510000000000e-01
    55 0  4.8479503097018928e-01 8.5185412584761853e+00 6.2330789696167201e+00    8.6703240000000004e-01
    56 0  2.9087701858211363e+00 8.5185412584761853e+00 6.0945661036252385e+00    8.6349100000000001e-01
    57 1  6.9256432995741343e-02 6.2330789696167201e+00 8.5877976914719252e+00    -8.6510779999999998e-01
    58 1  3.2550523507998430e+00 5.6097710726550476e+00 8.7955669904591485e+00    -8.6619250000000003e-01
    59 1  2.0776929898722399e-01 8.7955669904591485e+00 8.4492848254804418e+00    -8.6385360000000000e-01
    60 1  3.3935652167913259e+00 8.8648234234548919e+00 9.0033362894463735e+00    -8.6279079999999997e-01
    61 0  5.8175403716422727e+00 6.0253096706294951e+00 6.0945661036252385e+00    8.6105929999999997e-01
    62 0  8.7263105574634086e+00 5.8175403716422727e+00 5.9560532376337543e+00    8.6636510000000000e-01
    63 0  6.0253096706294951e+00 8.5185412584761853e+00 6.2330789696167201e+00    8.6703240000000004e-01
    64 0  8.4492848254804418e+00 8.5185412584761853e+00 6.0945661036252385e+00    8.6349100000000001e-01
END_CFG

