BEGIN_CFG
 Size
    128
 Supercell
    1.4080000000000000e+01 0.0000000000000000e+00 0.0000000000000000e+00
    0.0000000000000000e+00 1.4080000000000000e+01 0.0000000000000000e+00
    0.0000000000000000e+00 0.0000000000000000e+00 1.4080000000000000e+01
 AtomData:  id type       cartes_x      cartes_y      cartes_z           fx          fy          fz
    1 0  1.3761310000000000e+01 1.4557000000000000e-01 1.3889120000000000e+01  1.4842100000000000e-01 -1.3867000000000001e-02 -6.4749999999999999e-03
    2 0  1.6209499999999999e+00 1.8445900000000000e+00 1.7045100000000000e+00  2.0253800000000000e-01 -5.6148999999999998e-02 -6.1822000000000002e-02
    3 0  1.1180000000000000e-01 1.7727999999999999e-01 3.6068300000000000e+00  -8.8917999999999997e-02 -3.9196000000000002e-02 1.0681599999999999e-01
    4 0  2.0737800000000002e+00 1.6855500000000001e+00 5.6578700000000000e+00  -5.3273000000000001e-02 2.0719199999999999e-01 -2.6221499999999998e-01
    5 0  4.0390000000000002e-02 2.2892000000000001e-01 7.0979099999999997e+00  7.8449000000000005e-02 -1.4866699999999999e-01 -1.1505000000000000e-02
    6 0  2.4147900000000000e+00 1.9647699999999999e+00 8.8425300000000000e+00  -3.5919299999999998e-01 1.7882000000000001e-01 -2.2874900000000001e-01
    7 0  2.5309999999999999e-01 4.1044999999999998e-01 1.0225360000000000e+01  9.9967000000000000e-02 -1.2692999999999999e-01 1.6124700000000000e-01
    8 0  2.0914299999999999e+00 1.8512100000000000e+00 1.2319430000000001e+01  -3.4561799999999998e-01 -2.5749800000000000e-01 3.3563999999999997e-02
    9 0  1.3949650000000000e+01 3.3202699999999998e+00 1.3842620000000000e+01  1.3065999999999999e-02 3.9871999999999998e-02 2.0886999999999999e-02
    10 0  1.6461300000000001e+00 5.0540399999999996e+00 1.4653499999999999e+00  -1.1538200000000000e-01 -7.6220999999999997e-02 5.4191000000000003e-02
    11 0  1.3894780000000001e+01 3.4471099999999999e+00 3.5494400000000002e+00  1.4909000000000000e-02 -1.7061599999999999e-01 -9.2960000000000004e-03
    12 0  1.6309199999999999e+00 5.1560100000000002e+00 5.4252599999999997e+00  4.1124699999999997e-01 -4.0099999999999997e-02 -7.4206999999999995e-02
    13 0  1.4073399999999999e+01 3.6033300000000001e+00 7.1475999999999997e+00  1.7433599999999999e-01 -3.3964899999999998e-01 -1.6631299999999999e-01
    14 0  2.2430200000000000e+00 5.0992699999999997e+00 8.5270499999999991e+00  -2.7986699999999998e-01 7.0074999999999998e-02 3.8948500000000003e-01
    15 0  3.3632000000000001e-01 3.6328100000000001e+00 1.0577320000000000e+01  -1.8821999999999998e-02 -3.3524900000000002e-01 -2.2113900000000000e-01
    16 0  1.8409899999999999e+00 5.2103999999999999e+00 1.2058909999999999e+01  -1.1785100000000000e-01 2.0253800000000000e-01 3.8923400000000002e-01
    17 0  1.3876590000000000e+01 7.3810200000000004e+00 1.7387000000000000e-01  -4.4513999999999998e-02 -4.0277900000000000e-01 -5.3509300000000004e-01
    18 0  1.1517999999999999e+00 8.3683499999999995e+00 2.0928800000000001e+00  3.9494699999999999e-01 1.3180700000000001e-01 -2.1451000000000001e-02
    19 0  1.4042949999999999e+01 6.3592300000000002e+00 3.6082399999999999e+00  -2.4104700000000001e-01 2.5445699999999999e-01 -1.1457600000000000e-01
    20 0  1.7660800000000001e+00 8.5480300000000007e+00 5.0477800000000004e+00  5.2847999999999999e-02 -1.0708800000000000e-01 1.3979700000000000e-01
    21 0  2.9433999999999999e-01 6.8947799999999999e+00 7.2719899999999997e+00  -3.8971499999999998e-01 -1.0118800000000000e-01 -1.5277900000000000e-01
    22 0  1.7672000000000001e+00 8.6037599999999994e+00 8.6171600000000002e+00  1.4752999999999999e-01 3.9472600000000002e-01 -8.5828000000000002e-02
    23 0  6.1550000000000001e-02 6.9199500000000000e+00 1.0354600000000000e+01  -7.4510000000000007e-02 -7.7675999999999995e-02 1.5923899999999999e-01
    24 0  1.6543500000000000e+00 9.1073299999999993e+00 1.2608960000000000e+01  -4.0891200000000000e-01 -1.3882500000000000e-01 -4.8324699999999998e-01
    25 0  1.3918419999999999e+01 1.0723630000000000e+01 2.6657999999999998e-01  -2.9850000000000002e-02 4.2877999999999999e-02 -2.2754300000000000e-01
    26 0  1.7537600000000000e+00 1.2728389999999999e+01 1.4699300000000000e+00  -2.1486999999999999e-02 -1.4025000000000001e-01 4.0193000000000000e-02
    27 0  2.4060999999999999e-01 1.0719480000000001e+01 3.2931200000000000e+00  -1.3064899999999999e-01 2.7577999999999998e-02 2.2124900000000000e-01
    28 0  2.0095800000000001e+00 1.2235150000000001e+01 5.2697599999999998e+00  -2.2124800000000000e-01 1.8844300000000000e-01 -1.5393299999999999e-01
    29 0  2.5074000000000002e-01 1.0458240000000000e+01 6.8442800000000004e+00  -6.2000000000000000e-02 1.0085000000000000e-01 2.1586000000000000e-01
    30 0  1.9048000000000000e+00 1.2364260000000000e+01 8.7359399999999994e+00  -8.6335999999999996e-02 1.4694699999999999e-01 -8.4029000000000006e-02
    31 0  1.8847000000000000e-01 1.0667680000000001e+01 1.0465669999999999e+01  2.3136499999999999e-01 1.2431499999999999e-01 1.4035500000000001e-01
    32 0  1.8839900000000001e+00 1.2595060000000000e+01 1.2124200000000000e+01  -1.6386899999999999e-01 -1.1569800000000000e-01 1.2781699999999999e-01
    33 0  3.8394300000000001e+00 1.3889650000000000e+01 1.3868840000000001e+01  -1.6666600000000001e-01 3.4936200000000001e-01 2.1017500000000000e-01
    34 0  5.2238400000000000e+00 2.1530900000000002e+00 2.0341800000000001e+00  1.5531900000000001e-01 -3.4912900000000002e-01 -3.1065199999999998e-01
    35 0  3.5656800000000000e+00 1.4014260000000000e+01 3.4600300000000002e+00  -4.4218000000000000e-02 2.2825300000000001e-01 5.8257000000000003e-02
    36 0  5.4599000000000002e+00 2.0626300000000000e+00 5.2701000000000002e+00  1.0266900000000000e-01 -3.6311900000000003e-01 8.3310999999999996e-02
    37 0  3.7572600000000000e+00 1.4066660000000001e+01 7.0983400000000003e+00  1.6014900000000001e-01 -9.3007999999999993e-02 7.1851999999999999e-02
    38 0  5.4439299999999999e+00 1.9246200000000000e+00 9.0818100000000008e+00  4.7168000000000002e-02 3.2180000000000000e-02 -8.0744999999999997e-02
    39 0  3.5102500000000001e+00 1.8173000000000000e-01 1.0487430000000000e+01  3.1477899999999998e-01 -1.8938099999999999e-01 7.0116999999999999e-02
    40 0  5.5410500000000003e+00 1.7700000000000000e+00 1.2561460000000000e+01  -3.6746499999999999e-01 -3.8316600000000001e-01 -3.7828000000000001e-01
    41 0  3.4971899999999998e+00 3.4736899999999999e+00 1.3881080000000001e+01  1.3555200000000001e-01 1.4522199999999999e-01 2.2070600000000001e-01
    42 0  5.3522999999999996e+00 5.2036199999999999e+00 1.2942199999999999e+00  1.6902200000000001e-01 -9.2678999999999997e-02 1.5586100000000000e-01
    43 0  3.6896200000000001e+00 3.5190100000000002e+00 3.6611099999999999e+00  -4.5932299999999998e-01 1.0245000000000000e-01 -5.3810000000000004e-03
    44 0  5.5369099999999998e+00 5.2348400000000002e+00 4.9914600000000000e+00  -4.0119000000000002e-02 -4.5858999999999997e-02 8.7441000000000005e-02
    45 0  4.0056799999999999e+00 3.7055699999999998e+00 7.0207600000000001e+00  -2.8608999999999999e-02 -1.0240900000000000e-01 -4.2472999999999997e-02
    46 0  5.2350199999999996e+00 5.3838200000000001e+00 9.3502700000000001e+00  4.2091000000000003e-02 -7.1413000000000004e-02 -6.4949999999999994e-02
    47 0  3.6816399999999998e+00 3.6095600000000001e+00 1.0848750000000001e+01  2.0869900000000000e-01 -2.0131000000000000e-02 -2.8309000000000001e-02
    48 0  5.2187400000000004e+00 5.8735499999999998e+00 1.2613289999999999e+01  -1.6430800000000001e-01 -1.5986000000000000e-01 -3.0759900000000001e-01
    49 0  2.9155500000000001e+00 7.1372000000000000e+00 1.4027889999999999e+01  3.3135700000000001e-01 1.0861000000000001e-02 1.1176500000000000e-01
    50 0  5.2973400000000002e+00 8.7337799999999994e+00 1.5134900000000000e+00  -1.4144100000000001e-01 -2.1390600000000001e-01 3.5628000000000000e-02
    51 0  3.7052499999999999e+00 6.4006600000000002e+00 3.0634999999999999e+00  -2.8108400000000000e-01 3.5444199999999998e-01 1.1343900000000000e-01
    52 0  4.8312600000000003e+00 8.3708200000000001e+00 5.0575900000000003e+00  1.8645700000000001e-01 2.8737699999999999e-01 -7.4568999999999996e-02
    53 0  4.1252000000000004e+00 6.7335099999999999e+00 7.2184299999999997e+00  -5.1348199999999999e-01 9.7401000000000001e-02 -1.8699199999999999e-01
    54 0  5.3888800000000003e+00 8.5238399999999999e+00 9.0811799999999998e+00  -7.3535000000000003e-02 1.6003800000000001e-01 -9.9267999999999995e-02
    55 0  3.0067400000000002e+00 7.3616299999999999e+00 1.0533420000000000e+01  3.2367699999999999e-01 -1.6975199999999999e-01 2.2464100000000001e-01
    56 0  5.2239000000000004e+00 9.0535800000000002e+00 1.1956939999999999e+01  -1.9820999999999998e-02 -3.3990199999999998e-01 3.5986000000000001e-01
    57 0  3.3845700000000001e+00 1.0298819999999999e+01 1.3972590000000000e+01  2.2224099999999999e-01 4.5308900000000002e-01 2.3758599999999999e-01
    58 0  5.2113800000000001e+00 1.2382560000000000e+01 1.7917500000000000e+00  4.9630000000000001e-02 -3.4407799999999999e-01 -5.9550000000000002e-03
    59 0  3.2827899999999999e+00 1.0301760000000000e+01 3.0523099999999999e+00  5.6937000000000001e-02 1.6510000000000000e-01 1.1325700000000000e-01
    60 0  5.0623399999999998e+00 1.2172820000000000e+01 5.1935099999999998e+00  1.9418500000000000e-01 -7.0440000000000003e-02 3.7635000000000002e-02
    61 0  3.3247599999999999e+00 1.0557350000000000e+01 6.9711200000000000e+00  3.3024900000000001e-01 -2.8981299999999999e-01 1.5797000000000000e-01
    62 0  5.4442599999999999e+00 1.2154470000000000e+01 8.9651800000000001e+00  -4.5077099999999998e-01 1.9607500000000000e-01 1.3618900000000000e-01
    63 0  3.4924200000000001e+00 1.0656610000000001e+01 1.0504980000000000e+01  -1.2666600000000000e-01 -4.6153000000000000e-02 -7.4236999999999997e-02
    64 0  5.3577399999999997e+00 1.2432000000000000e+01 1.2115000000000000e+01  3.9197000000000003e-02 -1.7817800000000000e-01 9.1705999999999996e-02
    65 0  7.0255299999999998e+00 1.4028810000000000e+01 3.7167000000000000e-01  1.3342000000000000e-02 -8.3068000000000003e-02 -2.6804699999999998e-01
    66 0  8.7252600000000005e+00 1.5890800000000000e+00 1.7051099999999999e+00  1.3114799999999999e-01 2.5192300000000001e-01 6.2371000000000003e-02
    67 0  6.9448900000000000e+00 4.9300000000000004e-03 3.5814100000000000e+00  -2.5458000000000001e-02 3.1280000000000002e-02 6.9518999999999997e-02
    68 0  8.7103999999999999e+00 1.9170300000000000e+00 5.5545700000000000e+00  -1.4744099999999999e-01 -8.2822999999999994e-02 -5.1672000000000003e-02
    69 0  6.9713799999999999e+00 1.3891230000000000e+01 7.5099600000000004e+00  -3.2645900000000000e-01 5.6452999999999998e-01 -6.1719000000000002e-01
    70 0  8.7198399999999996e+00 1.8710000000000000e+00 8.8857300000000006e+00  4.6569999999999997e-03 -1.7371000000000001e-02 3.7078000000000000e-02
    71 0  7.1767899999999996e+00 1.4079260000000000e+01 1.0499530000000000e+01  -1.4461800000000000e-01 1.2837799999999999e-01 3.3627200000000002e-01
    72 0  8.8005600000000008e+00 1.7277400000000001e+00 1.2451980000000001e+01  5.7886000000000000e-02 -2.7246599999999999e-01 -2.5910499999999997e-01
    73 0  7.0127600000000001e+00 3.2355700000000001e+00 1.3825880000000000e+01  2.1122199999999999e-01 5.1409899999999997e-01 6.0381300000000004e-01
    74 0  8.7166700000000006e+00 5.4051299999999998e+00 1.7498100000000001e+00  4.9530999999999999e-02 8.8196999999999998e-02 -3.8307400000000003e-01
    75 0  7.3693099999999996e+00 3.6637100000000000e+00 3.4773100000000001e+00  -1.4947900000000000e-01 -1.2738400000000000e-01 3.2959999999999999e-03
    76 0  8.9633599999999998e+00 5.3531000000000004e+00 5.3405300000000002e+00  -1.8403100000000000e-01 -3.5300000000000002e-04 2.4272900000000000e-01
    77 0  6.9661000000000000e+00 3.8466300000000002e+00 7.1956499999999997e+00  6.3159999999999994e-02 -1.8867999999999999e-02 1.1674100000000000e-01
    78 0  8.7864400000000007e+00 5.5270299999999999e+00 8.8750199999999992e+00  2.1257999999999999e-02 -3.3944999999999997e-01 -3.1104900000000002e-01
    79 0  6.9926100000000000e+00 3.7525100000000000e+00 1.1054729999999999e+01  -3.1744000000000001e-02 -1.9321600000000000e-01 -4.0739500000000001e-01
    80 0  8.5148700000000002e+00 5.3794199999999996e+00 1.2378460000000000e+01  4.1778999999999999e-01 5.9719999999999999e-03 2.8762700000000002e-01
    81 0  7.1073899999999997e+00 7.2967000000000004e+00 1.3998570000000001e+01  1.0256200000000000e-01 1.4729000000000001e-02 1.2537000000000001e-01
    82 0  8.7754100000000008e+00 8.8549199999999999e+00 1.9770900000000000e+00  1.2957500000000000e-01 -3.9710000000000002e-02 -1.7828400000000000e-01
    83 0  7.0387800000000000e+00 6.9366899999999996e+00 3.4070399999999998e+00  -4.2942000000000001e-02 1.6341400000000000e-01 2.6740000000000000e-02
    84 0  8.6185200000000002e+00 8.7918299999999991e+00 5.6096599999999999e+00  -3.5789000000000001e-02 4.4950999999999998e-02 -1.8866700000000000e-01
    85 0  6.8133699999999999e+00 6.9409400000000003e+00 7.0074300000000003e+00  3.1828099999999998e-01 5.1869999999999999e-02 5.2007999999999999e-02
    86 0  8.8438199999999991e+00 8.6204099999999997e+00 8.7793700000000001e+00  -2.7673599999999998e-01 2.8213700000000003e-01 2.1144499999999999e-01
    87 0  7.2708100000000000e+00 6.7910100000000000e+00 1.0577900000000000e+01  -2.8832300000000000e-01 4.1200599999999998e-01 1.4210000000000000e-03
    88 0  8.7828400000000002e+00 8.5608199999999997e+00 1.2090299999999999e+01  1.2793199999999999e-01 2.6694099999999998e-01 -6.7464999999999997e-02
    89 0  7.2294200000000002e+00 1.0317900000000000e+01 1.3966580000000000e+01  -1.8827400000000000e-01 2.1420100000000000e-01 6.1595999999999998e-02
    90 0  8.7479800000000001e+00 1.2089540000000000e+01 2.0453100000000002e+00  9.7533999999999996e-02 6.4028000000000002e-02 -2.4622000000000002e-02
    91 0  6.7704899999999997e+00 1.0327270000000000e+01 3.4055200000000001e+00  -2.1228000000000000e-02 5.3337000000000002e-02 1.9655100000000000e-01
    92 0  8.3352500000000003e+00 1.2192830000000001e+01 5.5406700000000004e+00  2.3722099999999999e-01 -2.0365999999999999e-02 -1.2638300000000000e-01
    93 0  6.7542299999999997e+00 1.0539849999999999e+01 7.3918900000000001e+00  2.6882000000000000e-02 -3.0576399999999998e-01 -3.0420599999999998e-01
    94 0  8.4667700000000004e+00 1.2489800000000001e+01 8.7670300000000001e+00  5.9596199999999999e-01 -6.0604499999999994e-01 1.3887500000000000e-01
    95 0  7.0414099999999999e+00 1.0540970000000000e+01 1.0643829999999999e+01  2.1815699999999999e-01 -5.5272000000000002e-02 -2.1797400000000000e-01
    96 0  8.6535600000000006e+00 1.2143879999999999e+01 1.2229430000000001e+01  1.1500000000000000e-04 2.7819600000000000e-01 1.0287300000000001e-01
    97 0  1.0453640000000000e+01 1.3877969999999999e+01 1.3906190000000000e+01  5.7641999999999999e-02 -6.1018000000000003e-02 6.1126000000000000e-02
    98 0  1.2059430000000001e+01 1.7290600000000000e+00 1.5594900000000000e+00  -2.6429999999999999e-02 8.3579000000000001e-02 1.6509199999999999e-01
    99 0  1.0236689999999999e+01 1.7288999999999999e-01 3.7786800000000000e+00  1.1025799999999999e-01 -1.4105500000000001e-01 -1.6462000000000001e-02
    100 0  1.2007820000000001e+01 1.7335000000000000e+00 5.6280999999999999e+00  3.8377000000000000e-01 1.5020300000000000e-01 -4.6794400000000003e-01
    101 0  1.0710580000000000e+01 1.4010700000000000e+01 7.0511299999999997e+00  -3.4364000000000000e-01 -1.8909799999999999e-01 1.6637600000000000e-01
    102 0  1.2324310000000001e+01 1.7567200000000001e+00 8.8990899999999993e+00  -1.6688300000000000e-01 4.3602000000000002e-02 -7.0586999999999997e-02
    103 0  1.0484880000000000e+01 1.3784700000000001e+01 1.0266460000000000e+01  -3.0230000000000001e-01 4.2385400000000001e-01 -2.1120000000000000e-02
    104 0  1.2036220000000000e+01 1.8647100000000001e+00 1.1800960000000000e+01  1.1275000000000000e-01 -1.3239300000000001e-01 2.3277900000000001e-01
    105 0  1.0370990000000001e+01 3.5844700000000000e+00 1.3858540000000000e+01  -1.9365000000000000e-02 -4.5532999999999997e-02 1.6103300000000001e-01
    106 0  1.2091480000000001e+01 5.3785299999999996e+00 1.4370099999999999e+00  1.6217100000000001e-01 -6.6822000000000006e-02 1.6445899999999999e-01
    107 0  1.0455900000000000e+01 3.9517799999999998e+00 3.3863300000000001e+00  6.1892000000000003e-02 -4.8328900000000002e-01 -3.3319999999999999e-03
    108 0  1.2109430000000000e+01 5.0514099999999997e+00 5.3195100000000002e+00  1.1883199999999999e-01 1.7334900000000000e-01 2.8325000000000000e-01
    109 0  1.0514590000000000e+01 3.2856800000000002e+00 7.1519399999999997e+00  -9.3190999999999996e-02 3.9736100000000002e-01 1.8453400000000000e-01
    110 0  1.2460870000000000e+01 4.7621399999999996e+00 8.8813700000000004e+00  -2.5940400000000002e-01 3.6928000000000000e-01 6.8265999999999993e-02
    111 0  1.0274130000000000e+01 3.6945500000000000e+00 1.0675210000000000e+01  -1.6287099999999999e-01 -2.9849999999999998e-03 -1.8289300000000000e-01
    112 0  1.2318730000000000e+01 4.9029499999999997e+00 1.2125080000000001e+01  3.8068999999999999e-02 4.1834700000000002e-01 8.2653000000000004e-02
    113 0  1.0646670000000000e+01 7.1734999999999998e+00 1.3772480000000000e+01  -1.4909300000000000e-01 -8.1073000000000006e-02 4.5413000000000002e-02
    114 0  1.2100899999999999e+01 8.7896300000000007e+00 1.7207200000000000e+00  -1.0292000000000001e-02 6.9635000000000002e-02 2.5009399999999998e-01
    115 0  1.0336250000000000e+01 7.1115300000000001e+00 3.6838799999999998e+00  2.4306200000000000e-01 9.9129999999999999e-03 -5.4414999999999998e-02
    116 0  1.2692209999999999e+01 8.7967200000000005e+00 5.3250099999999998e+00  -3.6924999999999999e-02 -2.2108400000000000e-01 -8.6998000000000006e-02
    117 0  1.0627700000000001e+01 7.3130800000000002e+00 7.2621799999999999e+00  3.5337600000000002e-01 -2.6742899999999997e-01 -2.1312600000000001e-01
    118 0  1.2665609999999999e+01 9.0862400000000001e+00 9.1487700000000007e+00  -2.6643099999999997e-01 -1.8869400000000000e-01 -4.3936799999999998e-01
    119 0  1.0633640000000000e+01 6.9077900000000003e+00 1.0345370000000001e+01  2.1223800000000001e-01 7.1039000000000005e-02 2.4166599999999999e-01
    120 0  1.2406310000000000e+01 8.9016699999999993e+00 1.2046670000000001e+01  2.5799999999999998e-03 3.1330999999999998e-02 1.8160000000000001e-01
    121 0  1.0440630000000001e+01 1.0536709999999999e+01 1.3962120000000001e+01  1.5655300000000000e-01 1.8981999999999999e-02 9.4820000000000008e-03
    122 0  1.2264320000000000e+01 1.2460010000000000e+01 2.1689799999999999e+00  -1.4948200000000000e-01 6.5078999999999998e-02 -1.8493799999999999e-01
    123 0  1.0779370000000000e+01 1.0355840000000001e+01 3.8793600000000001e+00  -2.7555099999999999e-01 1.1151400000000000e-01 -2.8049000000000001e-02
    124 0  1.2478270000000000e+01 1.2184680000000000e+01 5.3340399999999999e+00  7.2630000000000004e-03 2.0140200000000000e-01 6.0155000000000000e-02
    125 0  1.0621110000000000e+01 1.0471520000000000e+01 7.2904099999999996e+00  -1.9200000000000000e-04 1.4835000000000001e-01 -7.0518999999999998e-02
    126 0  1.2439500000000001e+01 1.2379569999999999e+01 8.8407300000000006e+00  2.1883100000000000e-01 -5.8407000000000001e-02 -2.1548000000000000e-01
    127 0  1.0628920000000001e+01 1.0854039999999999e+01 1.0649900000000001e+01  -1.4922099999999999e-01 -3.3389300000000000e-01 -1.5183300000000000e-01
    128 0  1.2361300000000000e+01 1.2784470000000001e+01 1.1745229999999999e+01  3.0340299999999998e-01 -2.6601000000000002e-01 3.6244100000000001e-01
 Energy
    -2.3684377039000000e+02
 PlusStress:  xx          yy          zz          yz          xz          xy
     8.5863399999999999e+00 9.8375800000000009e+00 9.3704300000000007e+00 7.4119999999999997e-01 -2.2416499999999999e+00 -1.3617999999999999e+00
 Feature   MV_grade	1.292690
END_CFG

BEGIN_CFG
 Size
    128
 Supercell
    1.4080000000000000e+01 0.0000000000000000e+00 0.0000000000000000e+00
    0.0000000000000000e+00 1.4080000000000000e+01 0.0000000000000000e+00
    0.0000000000000000e+00 0.0000000000000000e+00 1.4080000000000000e+01
 AtomData:  id type       cartes_x      cartes_y      cartes_z           fx          fy          fz
    1 0  1.4046659999999999e+01 2.1142000000000000e-01 1.3891090000000000e+01  -1.4910899999999999e-01 -1.4814400000000000e-01 1.2735299999999999e-01
    2 0  2.0100099999999999e+00 1.6438100000000000e+00 1.7509900000000000e+00  -3.2288400000000000e-01 1.4052300000000001e-01 6.9560000000000004e-03
    3 0  1.3863450000000000e+01 3.7626999999999999e-01 3.6376599999999999e+00  2.6901399999999998e-01 -2.8072100000000000e-01 -9.8052000000000000e-02
    4 0  1.7913500000000000e+00 1.8875900000000001e+00 5.4914500000000004e+00  1.0035200000000000e-01 -2.2470399999999999e-01 -6.5550000000000001e-03
    5 0  1.4818000000000001e-01 1.4020600000000000e+01 6.9134000000000002e+00  -1.0882500000000001e-01 1.7537900000000001e-01 1.3226900000000000e-01
    6 0  2.1893199999999999e+00 1.9921199999999999e+00 8.6457499999999996e+00  -7.1274000000000004e-02 -1.5616700000000000e-01 1.7527000000000001e-01
    7 0  1.5015000000000001e-01 1.9294000000000000e-01 1.0479880000000000e+01  -6.2539999999999998e-02 -3.2529999999999998e-03 -8.5370000000000001e-02
    8 0  1.5870000000000000e+00 1.6300200000000000e+00 1.2394869999999999e+01  3.8300899999999999e-01 2.3137199999999999e-01 -6.6925999999999999e-02
    9 0  1.3821389999999999e+01 3.4137100000000000e+00 1.3951870000000000e+01  1.7489099999999999e-01 2.7765000000000001e-02 5.1190000000000003e-03
    10 0  1.5515200000000000e+00 4.6203700000000003e+00 1.7103900000000001e+00  1.6667999999999999e-01 5.0744699999999998e-01 -8.6036000000000001e-02
    11 0  1.4037940000000001e+01 3.4169600000000000e+00 3.5930200000000001e+00  -2.8865999999999999e-02 1.0133000000000000e-01 -5.4136999999999998e-02
    12 0  1.9445600000000001e+00 5.4120200000000001e+00 5.2374700000000001e+00  -3.0902600000000002e-01 -1.7075000000000001e-01 1.0137000000000000e-01
    13 0  1.7865000000000000e-01 3.3699100000000000e+00 6.8467200000000004e+00  -2.2318499999999999e-01 2.4979100000000001e-01 2.6749499999999998e-01
    14 0  2.0577899999999998e+00 5.1400399999999999e+00 8.6588399999999996e+00  -5.1742000000000003e-02 4.9556000000000003e-02 -3.0098000000000000e-02
    15 0  2.9560999999999998e-01 3.4171900000000002e+00 1.0494140000000000e+01  -1.4451000000000000e-01 1.7640900000000001e-01 8.5054000000000005e-02
    16 0  1.7389399999999999e+00 5.6337200000000003e+00 1.2454630000000000e+01  8.7430999999999995e-02 -3.8537100000000002e-01 -2.6497999999999999e-01
    17 0  1.4051710000000000e+01 7.0620399999999997e+00 1.3628010000000000e+01  -5.7453999999999998e-02 1.7347099999999999e-01 5.5181300000000000e-01
    18 0  1.6020000000000001e+00 8.3571399999999993e+00 2.0351900000000001e+00  -1.6072400000000001e-01 2.0592700000000000e-01 -8.8350999999999999e-02
    19 0  1.3811809999999999e+01 6.7210400000000003e+00 3.5729400000000000e+00  2.9026299999999999e-01 -3.1414999999999998e-02 1.0599000000000001e-02
    20 0  2.0556999999999999e+00 8.4040800000000004e+00 5.4287500000000000e+00  -2.7757100000000001e-01 2.8637499999999999e-01 -2.4787899999999999e-01
    21 0  1.3942790000000000e+01 6.9273600000000002e+00 7.1650299999999998e+00  3.2856900000000000e-01 8.4183999999999995e-02 1.1171000000000000e-02
    22 0  1.5870400000000000e+00 8.8905300000000000e+00 8.7111099999999997e+00  1.3265399999999999e-01 -2.5173099999999998e-01 2.9794999999999999e-02
    23 0  4.5449999999999997e-02 6.7792899999999996e+00 1.0407349999999999e+01  1.4033000000000000e-02 2.1167900000000001e-01 3.1001999999999998e-02
    24 0  1.6097800000000000e+00 9.1182599999999994e+00 1.2152820000000000e+01  1.5496199999999999e-01 -1.6674500000000000e-01 3.4646100000000002e-01
    25 0  1.3660170000000001e+01 1.0842730000000000e+01 1.3984730000000001e+01  3.1494600000000000e-01 -2.0309700000000000e-01 2.4089800000000000e-01
    26 0  1.8854900000000001e+00 1.2623590000000000e+01 1.3311400000000000e+00  -1.1118000000000000e-01 -1.0008800000000000e-01 2.6150499999999999e-01
    27 0  2.1210000000000001e-01 1.0661600000000000e+01 3.5358700000000001e+00  -7.9385999999999998e-02 -4.4731000000000000e-02 -1.2561200000000000e-01
    28 0  1.9524699999999999e+00 1.2383470000000001e+01 5.2026100000000000e+00  -3.6858000000000002e-02 -1.1498899999999999e-01 8.6068000000000006e-02
    29 0  1.4646999999999999e-01 1.0571190000000000e+01 7.0552799999999998e+00  -3.0802000000000000e-02 -4.9021000000000002e-02 -1.2777500000000000e-01
    30 0  1.7250399999999999e+00 1.2386749999999999e+01 8.8859800000000000e+00  1.1324700000000000e-01 -6.3424999999999995e-02 -8.7716000000000002e-02
    31 0  3.0710000000000001e-02 1.0523920000000000e+01 1.0585030000000000e+01  -1.6764999999999999e-02 6.7071000000000006e-02 -1.0946900000000000e-01
    32 0  1.9727500000000000e+00 1.2508580000000000e+01 1.2182280000000000e+01  -1.1588900000000001e-01 -3.7295000000000002e-02 2.5419000000000001e-02
    33 0  3.6646200000000002e+00 3.4672999999999998e-01 1.4032069999999999e+01  -2.1999999999999999e-02 -4.5787299999999997e-01 -6.1691000000000003e-02
    34 0  5.1567699999999999e+00 1.9159400000000000e+00 1.6221600000000000e+00  9.1388999999999998e-02 6.4944000000000002e-02 2.9492499999999999e-01
    35 0  3.4426999999999999e+00 3.2623000000000002e-01 3.8977499999999998e+00  7.6226000000000002e-02 -3.6672600000000000e-01 -3.7894299999999997e-01
    36 0  5.3603399999999999e+00 1.5563400000000001e+00 5.3313199999999998e+00  -1.5469999999999999e-02 4.0603200000000000e-01 -4.2458999999999997e-02
    37 0  3.6163599999999998e+00 1.4032980000000000e+01 7.2035099999999996e+00  -3.0907000000000000e-02 6.2996999999999997e-02 -1.3956700000000000e-01
    38 0  5.4458700000000002e+00 1.9306099999999999e+00 8.9649999999999999e+00  -1.0299000000000000e-01 -1.0446700000000000e-01 -3.5142000000000000e-02
    39 0  3.9047900000000002e+00 1.4042230000000000e+01 1.0518210000000000e+01  -4.2912099999999997e-01 1.1879900000000000e-01 -5.3579999999999999e-03
    40 0  5.2107599999999996e+00 1.4836499999999999e+00 1.2281390000000000e+01  2.4516199999999999e-01 3.5274100000000003e-01 1.9072200000000000e-01
    41 0  3.4203000000000001e+00 3.6885200000000000e+00 1.3703419999999999e+01  4.4359999999999997e-02 -1.9537299999999999e-01 2.1654599999999999e-01
    42 0  5.3583699999999999e+00 5.0552700000000002e+00 1.3824799999999999e+00  -7.0727999999999999e-02 2.1020200000000000e-01 1.5369800000000000e-01
    43 0  3.2640300000000000e+00 3.3892000000000002e+00 3.8739400000000002e+00  3.8042300000000001e-01 1.2476700000000000e-01 -2.7502399999999999e-01
    44 0  5.4368999999999996e+00 5.2016200000000001e+00 5.1226799999999999e+00  -4.3475000000000000e-02 6.6165000000000002e-02 1.7923999999999999e-02
    45 0  4.1307400000000003e+00 3.5800100000000001e+00 7.0234300000000003e+00  -3.5272599999999998e-01 2.1078000000000000e-02 2.3609999999999998e-03
    46 0  5.2845700000000004e+00 5.4461899999999996e+00 9.3160500000000006e+00  -2.7392000000000000e-02 -9.3251000000000001e-02 -2.6499299999999998e-01
    47 0  3.6299100000000002e+00 3.6076400000000000e+00 1.0885630000000001e+01  -8.3062999999999998e-02 -3.9165999999999999e-02 -1.5948699999999999e-01
    48 0  5.0865000000000000e+00 5.8999400000000000e+00 1.2431889999999999e+01  1.7023300000000000e-01 -3.3188000000000001e-01 6.8034999999999998e-02
    49 0  3.2977699999999999e+00 7.1520000000000001e+00 1.7954999999999999e-01  -8.1539000000000000e-02 -7.7978000000000006e-02 -2.2553699999999999e-01
    50 0  5.2093100000000003e+00 8.4855900000000002e+00 1.4516500000000001e+00  1.1020199999999999e-01 3.0536200000000002e-01 1.8246299999999999e-01
    51 0  3.6422699999999999e+00 6.6902499999999998e+00 3.3108900000000001e+00  1.3316000000000000e-02 1.7680999999999999e-02 -6.3839999999999999e-03
    52 0  5.1934800000000001e+00 8.9429099999999995e+00 5.0615800000000002e+00  -1.4912900000000001e-01 -3.6567400000000000e-01 1.3925499999999999e-01
    53 0  3.7765900000000001e+00 6.8123199999999997e+00 6.8365700000000000e+00  1.4642600000000000e-01 8.0363000000000004e-02 2.9448299999999999e-01
    54 0  5.1291000000000002e+00 8.7644900000000003e+00 8.7977799999999995e+00  2.0268900000000001e-01 -1.3686400000000001e-01 1.2390400000000000e-01
    55 0  3.2812100000000002e+00 7.2815000000000003e+00 1.0599970000000001e+01  -4.0083000000000001e-02 -7.6480000000000006e-02 -8.0904000000000004e-02
    56 0  5.3617200000000000e+00 8.7250499999999995e+00 1.2155709999999999e+01  -1.0628400000000000e-01 2.4909899999999999e-01 -2.9031999999999999e-02
    57 0  3.7541199999999999e+00 1.0804370000000000e+01 1.3936290000000000e+01  -3.0695000000000000e-01 -4.0005299999999999e-01 6.3602000000000006e-02
    58 0  5.3198999999999996e+00 1.2193250000000001e+01 1.7616000000000001e+00  -3.0686999999999999e-02 1.9366800000000001e-01 1.6479999999999999e-03
    59 0  3.5820500000000002e+00 1.0513249999999999e+01 3.1994300000000000e+00  -1.7154500000000000e-01 -8.9358999999999994e-02 8.7948999999999999e-02
    60 0  5.2487599999999999e+00 1.2254200000000001e+01 5.3680899999999996e+00  -1.0000299999999999e-01 1.5703000000000002e-02 -1.3069900000000001e-01
    61 0  3.6579899999999999e+00 1.0361710000000000e+01 7.1335499999999996e+00  -2.5826900000000003e-01 2.2594200000000000e-01 -1.5519700000000000e-01
    62 0  5.0890300000000002e+00 1.2273040000000000e+01 8.8808199999999999e+00  3.3438099999999998e-01 -7.7822000000000002e-02 -4.9016999999999998e-02
    63 0  3.4218299999999999e+00 1.0489520000000001e+01 1.0325040000000000e+01  8.3890999999999993e-02 1.1905499999999999e-01 2.1202099999999999e-01
    64 0  5.4324100000000000e+00 1.2119690000000000e+01 1.2335699999999999e+01  -8.1276000000000001e-02 2.6066400000000001e-01 -1.4910300000000001e-01