BEGIN_CFG
 Size
    128
 Supercell
    1.2849760000000000e+01 -1.3111999999999999e-01 0.0000000000000000e+00
    -1.3111999999999999e-01 1.3112000000000000e+01 0.0000000000000000e+00
    0.0000000000000000e+00 0.0000000000000000e+00 1.3112000000000000e+01
 AtomData:  id type       cartes_x      cartes_y      cartes_z           fx          fy          fz
    1 0  6.0949200000000001e+00 6.4314700000000000e+00 6.5072599999999996e+00  7.7054500000000004e-01 1.1950600000000000e-01 8.1930000000000003e-02
    2 0  1.2290990000000001e+01 3.5857000000000000e-01 1.3040310000000000e+01  2.1531000000000002e-02 -9.4001500000000004e-01 2.1232300000000001e-01
    3 0  2.6790000000000003e-01 3.0839999999999999e-02 3.1385700000000001e+00  -6.5261899999999995e-01 1.3459599999999999e-01 1.2983420000000001e+00
    4 0  1.8733000000000000e-01 1.5503000000000000e-01 6.2268800000000004e+00  -4.1476099999999999e-01 -9.3813700000000000e-01 9.6221199999999996e-01
    5 0  4.1981000000000002e-01 3.4636000000000000e-01 9.6304900000000000e+00  -1.2778769999999999e+00 -1.2345379999999999e+00 1.1818300000000000e-01
    6 0  1.2750000000000000e+01 3.2077000000000000e+00 1.3025740000000001e+01  -5.0444299999999997e-01 -6.9527000000000005e-02 -6.4853499999999997e-01
    7 0  1.2429700000000000e+01 3.4428700000000001e+00 3.8346900000000002e+00  -5.8702900000000002e-01 -1.0269779999999999e+00 1.7616999999999999e-01
    8 0  1.2638600000000000e+01 3.4469799999999999e+00 6.9041600000000001e+00  4.7412700000000002e-01 -6.9819200000000003e-01 -1.3429840000000000e+00
    9 0  2.4567000000000000e-01 3.2354200000000000e+00 9.8445999999999998e+00  -1.3701300000000001e+00 -7.6105699999999998e-01 7.8317599999999998e-01
    10 0  1.2613870000000000e+01 6.6036799999999998e+00 3.4229999999999997e-02  -4.6476099999999998e-01 -1.1333139999999999e+00 1.2901799999999999e-01
    11 0  1.2734410000000000e+01 7.0375199999999998e+00 3.1630099999999999e+00  2.4844100000000000e-01 -2.1550319999999998e+00 -1.6684479999999999e+00
    12 0  1.2616709999999999e+01 6.5248200000000001e+00 6.8517299999999999e+00  1.1046140000000000e+00 -2.2621400000000000e-01 2.6600600000000002e-01
    13 0  1.6033000000000000e-01 6.8416499999999996e+00 9.9550699999999992e+00  -7.8864400000000001e-01 -1.1553899999999999e+00 -3.1556099999999998e-01
    14 0  1.2154019999999999e+01 9.8587900000000008e+00 1.2942220000000001e+01  7.8452999999999995e-01 2.2888800000000001e-01 1.0674060000000001e+00
    15 0  8.0180000000000001e-02 9.9703499999999998e+00 3.1952699999999998e+00  -1.2043360000000001e+00 5.0932800000000000e-01 9.7865899999999995e-01
    16 0  1.9703999999999999e-01 1.0176769999999999e+01 6.4748500000000000e+00  -1.3306119999999999e+00 -7.8784699999999996e-01 -1.1237710000000001e+00
    17 0  4.2766999999999999e-01 9.7664899999999992e+00 9.8728700000000007e+00  -2.2908480000000000e+00 6.3855099999999998e-01 -1.6293569999999999e+00
    18 0  3.3338700000000001e+00 5.2300000000000003e-03 2.3985999999999999e-01  2.1425500000000000e-01 -1.6619500000000001e-01 -1.1530220000000000e+00
    19 0  2.9447000000000001e+00 1.3046400000000000e+01 2.7272900000000000e+00  5.7378099999999999e-01 1.9823499999999999e-01 1.4636819999999999e+00
    20 0  3.2871500000000000e+00 2.4951999999999999e-01 6.7032699999999998e+00  -1.2045900000000000e-01 9.9048999999999998e-02 -1.2784699999999999e-01
    21 0  2.9239600000000001e+00 1.2859330000000000e+01 9.8307500000000001e+00  1.0677530000000000e+00 8.2975200000000005e-01 -9.0744899999999995e-01
    22 0  3.3728400000000001e+00 3.4250799999999999e+00 1.6100999999999999e-01  -9.9053500000000005e-01 -1.0627949999999999e+00 4.4761600000000001e-01
    23 0  3.2068099999999999e+00 2.6811799999999999e+00 3.5635400000000002e+00  -9.1081999999999996e-02 1.1126769999999999e+00 -1.3119200000000000e+00
    24 0  3.6023900000000002e+00 2.9202100000000000e+00 6.2260900000000001e+00  -8.2145400000000002e-01 4.1937500000000000e-01 1.4379180000000000e+00
    25 0  2.7237800000000001e+00 3.2831999999999999e+00 1.0255739999999999e+01  1.8841950000000001e+00 -1.0092699999999999e+00 -3.3323000000000003e-01
    26 0  3.2405599999999999e+00 6.4241000000000001e+00 1.2932610000000000e+01  -3.4288800000000003e-01 -2.8843000000000001e-02 4.2643900000000001e-01
    27 0  2.7328800000000002e+00 6.2558499999999997e+00 2.6494599999999999e+00  9.0787099999999998e-01 5.6781300000000001e-01 4.4207400000000002e-01
    28 0  3.3635100000000002e+00 6.3735600000000003e+00 6.5868200000000003e+00  -1.1380450000000000e+00 2.5984099999999999e-01 -2.7942499999999998e-01
    29 0  2.9998000000000000e+00 6.6060999999999996e+00 9.7576400000000003e+00  -1.1801000000000000e-01 -7.1200699999999995e-01 9.0510400000000002e-01
    30 0  3.0861100000000001e+00 9.8405500000000004e+00 1.3097170000000000e+01  6.6083700000000001e-01 3.6267800000000000e-01 -2.3548500000000000e-01
    31 0  2.7490500000000000e+00 9.6312700000000007e+00 3.1448200000000002e+00  1.2687750000000000e+00 1.7558699999999999e-01 -5.7801599999999997e-01
    32 0  3.3048799999999998e+00 9.5312500000000000e+00 5.9791200000000000e+00  -5.9088300000000005e-01 7.3735300000000004e-01 5.2147699999999997e-01
    33 0  2.9877699999999998e+00 1.0134530000000000e+01 9.5089500000000005e+00  1.1863699999999999e+00 -1.2064299999999999e+00 1.3205700000000000e+00
    34 0  6.6367700000000003e+00 1.2926679999999999e+01 2.0684000000000000e-01  -1.6532600000000000e+00 5.6035900000000005e-01 7.8368300000000002e-01
    35 0  6.9399100000000002e+00 1.2896440000000000e+01 2.9713300000000000e+00  -1.2012830000000001e+00 2.8835899999999998e-01 1.8960700000000000e-01
    36 0  6.4459499999999998e+00 8.8330000000000006e-02 6.7330699999999997e+00  -6.4196799999999998e-01 1.0468430000000000e+00 -1.5013299999999999e-01
    37 0  6.5704500000000001e+00 1.5392000000000000e-01 9.5419800000000006e+00  -2.7939500000000000e-01 -9.1028100000000001e-01 4.8223300000000002e-01
    38 0  6.8216999999999999e+00 3.3578600000000001e+00 3.9416000000000001e-01  -1.2673950000000000e+00 -1.0105970000000000e+00 -1.1526050000000001e+00
    39 0  6.7099599999999997e+00 3.2045900000000000e+00 3.7873500000000000e+00  -3.8015599999999999e-01 1.8201000000000001e-01 -1.3255090000000000e+00
    40 0  6.4174100000000003e+00 3.0556899999999998e+00 6.3997400000000004e+00  3.0545099999999997e-01 1.3167799999999999e-01 7.3510299999999995e-01
    41 0  6.6250400000000003e+00 3.3429899999999999e+00 9.6817499999999992e+00  -1.0903300000000000e-01 -6.5111500000000000e-01 6.7576899999999995e-01
    42 0  6.3543000000000003e+00 6.3375800000000000e+00 1.2916810000000000e+01  -4.8436800000000002e-01 2.4191599999999999e-01 3.1316400000000000e-01
    43 0  6.4840299999999997e+00 6.3631799999999998e+00 3.5848900000000001e+00  2.3259199999999999e-01 -1.6552160000000000e+00 -6.3632200000000005e-01
    44 0  5.9443000000000001e+00 6.4026199999999998e+00 9.4136799999999994e+00  1.9703899999999999e-01 5.1149100000000003e-01 6.3566100000000003e-01
    45 0  5.9337000000000000e+00 9.4184300000000007e+00 1.3021870000000000e+01  1.5937200000000001e-01 1.0766070000000001e+00 -6.2018799999999996e-01
    46 0  6.4624699999999997e+00 9.2403300000000002e+00 3.8023500000000001e+00  5.8872899999999995e-01 2.0312150000000000e+00 -1.1730609999999999e+00
    47 0  6.0089100000000002e+00 9.5888600000000004e+00 6.4856600000000002e+00  1.5724389999999999e+00 -1.0674300000000000e-01 3.3456799999999998e-01
    48 0  6.3613799999999996e+00 9.8451500000000003e+00 9.6231700000000000e+00  -1.3855569999999999e+00 5.8648299999999998e-01 -9.7899700000000001e-01
    49 0  9.3331499999999998e+00 1.2832409999999999e+01 1.0145999999999999e-01  7.3593299999999995e-01 -2.6189200000000001e-01 -6.8477299999999997e-01
    50 0  9.5539799999999993e+00 1.2797319999999999e+01 3.0479699999999998e+00  1.8283300000000000e-01 -4.7759999999999999e-03 6.1166999999999999e-02
    51 0  1.0065540000000000e+01 1.2702909999999999e+01 6.3414799999999998e+00  -1.2467220000000001e+00 4.2950300000000002e-01 1.6084339999999999e+00
    52 0  9.3838799999999996e+00 1.2867220000000000e+01 1.0275650000000001e+01  -2.4672400000000000e-01 1.0388580000000001e+00 -7.5526800000000005e-01
    53 0  9.4790299999999998e+00 3.3855000000000000e+00 9.7610000000000002e-02  6.8411699999999998e-01 -3.2269700000000001e-01 -1.1484190000000001e+00
    54 0  9.5947700000000005e+00 3.3228300000000002e+00 3.6294499999999998e+00  2.8844599999999998e-01 2.6045600000000002e-01 1.8597400000000000e-01
    55 0  1.0110849999999999e+01 3.1446700000000001e+00 6.9415699999999996e+00  -9.9901399999999996e-01 1.0139279999999999e+00 -1.1545749999999999e+00
    56 0  9.3266100000000005e+00 3.2942100000000001e+00 9.7955900000000007e+00  1.6296800000000000e-01 -5.9830000000000005e-01 1.6321400000000000e-01
    57 0  9.5976099999999995e+00 6.5433599999999998e+00 1.3033329999999999e+01  -6.5491999999999995e-02 2.9538300000000001e-01 1.6772799999999999e-01
    58 0  9.2942099999999996e+00 6.6025000000000000e+00 3.2737500000000002e+00  1.0884350000000000e+00 -3.4433300000000000e-01 -4.0535000000000002e-02
    59 0  9.7795199999999998e+00 6.0588899999999999e+00 7.2512699999999999e+00  1.1420090000000001e+00 9.3734899999999999e-01 -6.8074400000000002e-01
    60 0  1.0018630000000000e+01 6.3371800000000000e+00 1.0019170000000001e+01  -1.7286710000000001e+00 9.6875100000000003e-01 1.8785299999999999e-01
    61 0  9.4155700000000007e+00 9.6170100000000005e+00 1.2806330000000001e+01  -8.2821299999999998e-01 7.3523099999999997e-01 6.8886599999999998e-01
    62 0  9.2874099999999995e+00 9.4594000000000005e+00 3.5958399999999999e+00  -7.4134299999999997e-01 1.1486220000000000e+00 -4.6716299999999999e-01
    63 0  9.2905899999999999e+00 9.8803500000000000e+00 6.5618100000000004e+00  2.4042100000000000e-01 -2.1799900000000000e-01 2.0694599999999999e-01
    64 0  9.0981600000000000e+00 1.0230449999999999e+01 1.0035399999999999e+01  1.4598040000000001e+00 -1.3412070000000000e+00 -1.1316480000000000e+00
    65 0  1.1800200000000001e+00 1.7541800000000001e+00 1.4797199999999999e+00  1.2707990000000000e+00 -4.6592600000000001e-01 3.3460499999999999e-01
    66 0  1.4298100000000000e+00 1.8900699999999999e+00 5.1632499999999997e+00  6.9900000000000004e-02 -2.0108500000000001e-01 -3.6104700000000001e-01
    67 0  1.7729900000000001e+00 2.0578699999999999e+00 8.3092699999999997e+00  1.2157039999999999e+00 -1.0850730000000000e+00 -2.0230199999999998e+00
    68 0  1.6122200000000000e+00 1.2987500000000001e+00 1.1652490000000000e+01  1.9563000000000000e-01 2.9985000000000001e-01 5.8759200000000000e-01
    69 0  1.1369899999999999e+00 4.3269200000000003e+00 2.0218400000000001e+00  1.0469729999999999e+00 1.3161799999999999e+00 -9.7486399999999995e-01
    70 0  1.5823300000000000e+00 4.9475899999999999e+00 4.8932300000000000e+00  -8.6490999999999998e-02 -2.0737600000000000e-01 4.2303700000000000e-01
    71 0  1.6310300000000000e+00 4.7717799999999997e+00 8.2039799999999996e+00  7.1186899999999997e-01 1.1502270000000001e+00 -3.8101600000000002e-01
    72 0  1.6472599999999999e+00 4.8526300000000004e+00 1.1653340000000000e+01  -4.5415800000000001e-01 1.1539340000000000e+00 2.1975900000000001e-01
    73 0  1.2711500000000000e+00 8.4139300000000006e+00 1.3155200000000000e+00  4.2253099999999999e-01 -3.0148999999999999e-02 -3.9958399999999999e-01
    74 0  1.2959099999999999e+00 7.9973599999999996e+00 4.8169199999999996e+00  1.1028370000000001e+00 -2.9853000000000001e-02 1.3476440000000001e+00
    75 0  1.6648799999999999e+00 8.1394000000000002e+00 8.0777500000000000e+00  -3.8667699999999999e-01 6.0507699999999998e-01 -9.6962000000000004e-01
    76 0  1.2001100000000000e+00 8.3153000000000006e+00 1.1665920000000000e+01  1.4217839999999999e+00 -1.2181699999999999e-01 9.2992300000000006e-01
    77 0  1.2180400000000000e+00 1.1388600000000000e+01 1.3437399999999999e+00  6.6543000000000005e-02 6.6062699999999996e-01 -7.2401400000000005e-01
    78 0  2.0194800000000002e+00 1.1718090000000000e+01 4.7692199999999998e+00  -2.9203200000000001e-01 -3.1385500000000000e-01 2.7860600000000002e-01
    79 0  1.5259900000000000e+00 1.1320180000000001e+01 7.6395799999999996e+00  9.0912400000000004e-01 6.0238000000000003e-01 1.2718190000000000e+00
    80 0  1.2886700000000000e+00 1.1507759999999999e+01 1.1486810000000000e+01  9.2017899999999997e-01 7.2383900000000001e-01 9.9209300000000000e-01
    81 0  5.1367799999999999e+00 1.5745499999999999e+00 1.9871200000000000e+00  2.1495300000000001e-01 1.5442200000000000e-01 -1.0376430000000001e+00
    82 0  5.1733700000000002e+00 1.0591100000000000e+00 4.7416299999999998e+00  -4.9156800000000000e-01 5.8601000000000000e-02 -8.1879400000000002e-01
    83 0  4.7956399999999997e+00 1.8731100000000001e+00 8.6320700000000006e+00  -9.2635400000000001e-01 -3.9172000000000001e-01 -1.0169100000000000e+00
    84 0  4.9964700000000004e+00 1.6325400000000001e+00 1.1361670000000000e+01  -8.9417300000000000e-01 -4.3565500000000001e-01 1.1639800000000000e+00
    85 0  5.0427600000000004e+00 4.6553399999999998e+00 1.6489700000000000e+00  -3.7650000000000003e-02 6.2562700000000004e-01 1.6045840000000000e+00
    86 0  4.4712399999999999e+00 4.8707099999999999e+00 4.9570200000000000e+00  8.4672499999999995e-01 -2.7431699999999998e-01 -1.4842160000000000e+00
    87 0  4.6942500000000003e+00 4.5478800000000001e+00 8.1197700000000008e+00  -4.7232800000000003e-01 7.3425000000000004e-02 1.3398800000000000e-01
    88 0  4.5880799999999997e+00 4.5739500000000000e+00 1.1196650000000000e+01  1.3204419999999999e+00 1.1383209999999999e+00 4.9925900000000001e-01
    89 0  4.6378500000000003e+00 8.0763300000000005e+00 1.5995900000000001e+00  -1.9012999999999999e-01 -7.3807199999999995e-01 2.8216200000000002e-01
    90 0  4.6274499999999996e+00 7.7659099999999999e+00 4.3967200000000002e+00  -2.0348500000000000e+00 -4.6512999999999999e-01 7.9455500000000001e-01
    91 0  4.2897800000000004e+00 8.0742499999999993e+00 8.0494800000000009e+00  1.1845570000000001e+00 1.4328719999999999e+00 5.2429000000000003e-01
    92 0  4.7694500000000000e+00 7.9136899999999999e+00 1.1316220000000000e+01  -2.4330299999999999e-01 7.5156699999999999e-01 -7.0430800000000005e-01
    93 0  4.8598100000000004e+00 1.1255620000000000e+01 1.8799900000000000e+00  2.9724000000000000e-02 -4.0780300000000003e-01 -7.8748700000000005e-01
    94 0  4.9865000000000004e+00 1.1432580000000000e+01 4.6361100000000004e+00  -8.8431700000000002e-01 -4.9360500000000002e-01 7.9375399999999996e-01
    95 0  4.5939899999999998e+00 1.1406650000000001e+01 7.7542499999999999e+00  4.6149999999999997e-02 -1.2311300000000000e-01 1.9947300000000001e-01
    96 0  4.7804700000000002e+00 1.1540340000000000e+01 1.1315210000000000e+01  -2.0729500000000001e-01 8.6123000000000005e-02 4.7058499999999998e-01
    97 0  8.5098000000000003e+00 1.5933900000000001e+00 1.6558900000000001e+00  -1.1432850000000001e+00 7.0857599999999998e-01 6.7074000000000000e-01
    98 0  8.4903600000000008e+00 1.1724000000000001e+00 4.8680000000000003e+00  -1.5801620000000001e+00 1.2317359999999999e+00 8.2338699999999998e-01
    99 0  8.2746800000000000e+00 1.6755599999999999e+00 7.9388300000000003e+00  -4.6924000000000000e-02 -9.8066799999999998e-01 2.5489600000000001e-01
    100 0  7.6886799999999997e+00 1.5539799999999999e+00 1.1589169999999999e+01  1.2188319999999999e+00 5.8535800000000004e-01 4.0564000000000003e-02
    101 0  8.2789199999999994e+00 4.9159699999999997e+00 1.7570699999999999e+00  -6.2278400000000000e-01 4.2732599999999998e-01 1.7482900000000001e-01
    102 0  8.3535699999999995e+00 5.0172800000000004e+00 5.5088200000000001e+00  -9.8092100000000004e-01 -9.4164599999999998e-01 -8.4725399999999995e-01
    103 0  7.8291199999999996e+00 4.8035600000000001e+00 8.3081099999999992e+00  -1.4056299999999999e-01 7.3612699999999998e-01 -6.9943100000000002e-01
    104 0  7.9743399999999998e+00 4.9535499999999999e+00 1.1529890000000000e+01  2.8847000000000001e-02 1.3797200000000001e-01 -1.0738610000000000e+00
    105 0  7.5041000000000002e+00 7.9623200000000001e+00 1.6733400000000000e+00  8.2135100000000005e-01 1.0460999999999999e-01 -3.2033200000000001e-01
    106 0  8.1777899999999999e+00 7.7279600000000004e+00 5.2475399999999999e+00  -5.3780000000000000e-03 9.4372999999999999e-02 1.4606460000000001e+00
    107 0  8.0042299999999997e+00 7.9092399999999996e+00 8.0838800000000006e+00  -1.7803700000000000e-01 4.0124100000000001e-01 7.5882499999999997e-01
    108 0  7.5297400000000003e+00 8.2129200000000004e+00 1.0934040000000000e+01  1.4195089999999999e+00 -1.5510070000000000e+00 1.6730380000000000e+00
    109 0  7.7857900000000004e+00 1.0797160000000000e+01 1.5771599999999999e+00  3.2702900000000001e-01 7.4539999999999997e-03 2.2895599999999999e-01
    110 0  7.8906200000000002e+00 1.1617330000000001e+01 5.0491700000000002e+00  -3.3758600000000000e-01 -1.7084349999999999e+00 -1.8508800000000000e-01
    111 0  7.9347500000000002e+00 1.1801420000000000e+01 7.9555600000000002e+00  9.0071999999999997e-01 -8.6495699999999998e-01 3.3304499999999998e-01
    112 0  7.5026700000000002e+00 1.1375980000000000e+01 1.1716180000000000e+01  -2.3564599999999999e-01 -5.5367400000000000e-01 -8.7737799999999999e-01
    113 0  1.1171980000000000e+01 2.0387000000000000e+00 1.8794000000000000e+00  7.0860699999999999e-01 -8.7141900000000005e-01 -4.2473400000000000e-01
    114 0  1.1059580000000000e+01 1.4199100000000000e+00 5.0236900000000002e+00  1.4199860000000000e+00 8.4605900000000001e-01 -9.7324900000000003e-01
    115 0  1.1171830000000000e+01 1.1504300000000001e+00 8.3642099999999999e+00  3.9052599999999998e-01 7.2665199999999996e-01 1.8065200000000001e-01
    116 0  1.0879530000000001e+01 1.8932300000000000e+00 1.1324310000000001e+01  8.6372800000000005e-01 -1.6084680000000000e+00 2.6491999999999999e-01
    117 0  1.1145640000000000e+01 4.8827999999999996e+00 1.5801900000000000e+00  -3.5987999999999999e-02 6.1836700000000000e-01 1.0491880000000000e+00
    118 0  1.1493020000000000e+01 5.5250899999999996e+00 5.0254500000000002e+00  -8.6769799999999997e-01 -1.3618380000000001e+00 -9.8211000000000007e-02
    119 0  1.1474679999999999e+01 4.7461000000000002e+00 8.8076200000000000e+00  -1.1341600000000000e-01 5.4718999999999997e-02 -1.4015880000000001e+00
    120 0  1.1268730000000000e+01 4.3900699999999997e+00 1.1192869999999999e+01  -2.0402999999999999e-01 2.1514160000000002e+00 2.8721999999999999e+00
    121 0  1.0860500000000000e+01 8.3923799999999993e+00 1.8831899999999999e+00  3.7793500000000002e-01 -2.2748699999999999e-01 -1.5099119999999999e+00
    122 0  1.1173600000000000e+01 8.1252499999999994e+00 4.7784500000000003e+00  -3.6777700000000002e-01 1.1977500000000001e+00 1.7493799999999999e+00
    123 0  1.1233890000000001e+01 8.1883499999999998e+00 8.2408000000000001e+00  -3.8399600000000000e-01 1.0476190000000001e+00 4.8101500000000003e-01
    124 0  1.1090940000000000e+01 8.3353300000000008e+00 1.1382619999999999e+01  4.4159500000000002e-01 -3.5554000000000002e-01 -1.3010010000000001e+00
    125 0  1.1138100000000000e+01 1.1546260000000000e+01 1.7602300000000000e+00  5.6106900000000004e-01 -1.0933550000000001e+00 -4.5316600000000001e-01
    126 0  1.1030740000000000e+01 1.1163580000000000e+01 4.7992999999999997e+00  1.2084379999999999e+00 -6.3652500000000001e-01 -1.1181559999999999e+00
    127 0  1.1120740000000000e+01 1.1347670000000001e+01 8.2763600000000004e+00  3.7619900000000001e-01 -4.3940600000000002e-01 2.7496999999999999e-01
    128 0  1.1514469999999999e+01 1.1586630000000000e+01 1.1105210000000000e+01  -1.0659400000000001e+00 -7.6458999999999999e-02 1.2386100000000000e-01
 Energy
    -9.7268636421999997e+02
 PlusStress:  xx          yy          zz          yz          xz          xy
     4.2154150000000001e+01 2.9128070000000001e+01 3.6285679999999999e+01 3.8775400000000002e+00 2.7152200000000000e+00 8.3676700000000004e+00
 Feature   MV_grade	9.9e99
END_CFG

BEGIN_CFG
 Size
    128
 Supercell
    1.2849760000000000e+01 -1.3111999999999999e-01 0.0000000000000000e+00
    -1.3111999999999999e-01 1.3112000000000000e+01 0.0000000000000000e+00
    0.0000000000000000e+00 0.0000000000000000e+00 1.3112000000000000e+01
 AtomData:  id type       cartes_x      cartes_y      cartes_z           fx          fy          fz
    1 0  6.2417199999999999e+00 6.3363399999999999e+00 6.7551500000000004e+00  9.2309999999999996e-03 8.4281999999999996e-02 2.6434400000000002e-01
    2 0  3.1644000000000000e-01 1.3041960000000000e+01 4.1900000000000000e-02  -2.2761799999999999e-01 8.0720499999999995e-01 1.6621550000000000e+00
    3 0  6.7379999999999995e-02 4.3230000000000002e-01 3.3342700000000001e+00  6.6141399999999995e-01 -7.6462900000000000e-01 -6.9394999999999998e-02
    4 0  1.2970000000000001e-01 1.9771000000000000e-01 6.3291100000000000e+00  -1.2524900000000000e-01 -9.3859099999999995e-01 -1.1007229999999999e+00
    5 0  1.2699490000000001e+01 1.2813940000000001e+01 9.9583499999999994e+00  -3.7351600000000001e-01 -3.5551400000000000e-01 -2.8471700000000000e-01
    6 0  1.2647580000000000e+01 3.0067100000000000e+00 1.2653490000000000e+01  1.1819249999999999e+00 1.4674330000000000e+00 4.0150100000000000e-01
    7 0  -4.4999999999999999e-04 3.6658300000000001e+00 3.4177100000000000e+00  -2.5012800000000002e-01 -1.0810400000000000e+00 -4.4707599999999997e-01
    8 0  2.1901999999999999e-01 3.1714899999999999e+00 6.3797100000000002e+00  -1.0269230000000000e+00 2.8772799999999998e-01 4.2666700000000002e-01
    9 0  2.8499999999999998e-01 3.3498100000000002e+00 9.6590100000000003e+00  -3.4786800000000001e-01 -3.6711500000000002e-01 3.2571899999999998e-01
    10 0  1.4016999999999999e-01 6.8144400000000003e+00 2.8036000000000000e-01  -4.9557899999999999e-01 -3.9878100000000000e-01 -6.1282499999999995e-01
    11 0  1.2654360000000000e+01 6.4618500000000001e+00 3.1726700000000001e+00  -4.9143999999999999e-01 -2.5637100000000002e-01 9.7552600000000000e-01
    12 0  1.2265490000000000e+01 6.1768400000000003e+00 6.0688700000000004e+00  1.0777600000000001e+00 4.4666999999999998e-02 -8.2555400000000001e-01
    13 0  1.2734909999999999e+01 6.2684499999999996e+00 9.8256099999999993e+00  2.0253599999999999e-01 6.6954899999999995e-01 -6.2134999999999996e-01
    14 0  7.3870000000000005e-02 9.6832200000000004e+00 1.9109999999999999e-01  -1.3021600000000000e-01 -9.6720799999999996e-01 6.1334000000000000e-02
    15 0  1.2564700000000000e+01 9.4223300000000005e+00 3.5953200000000001e+00  -6.3513000000000000e-02 2.2906899999999999e-01 6.9012300000000004e-01
    16 0  1.2512860000000000e+01 9.6906700000000008e+00 6.4188400000000003e+00  4.9805199999999999e-01 -4.6260999999999997e-02 -1.5841200000000000e-01
    17 0  1.2610329999999999e+01 9.2212200000000006e+00 9.3086699999999993e+00  4.8303499999999999e-01 1.2666109999999999e+00 1.4253940000000000e+00
    18 0  2.9703900000000001e+00 1.2783140000000000e+01 1.2952230000000000e+01  5.1895000000000002e-01 -9.9109000000000003e-02 1.5108500000000000e-01
    19 0  3.2474500000000002e+00 6.5519999999999995e-02 3.1075499999999998e+00  -7.3430899999999999e-01 -1.7125000000000001e-02 4.5924199999999998e-01
    20 0  3.0395599999999998e+00 1.9656000000000001e-01 6.6279800000000000e+00  -1.2728800000000001e-01 -9.4091599999999997e-01 -6.2714099999999995e-01
    21 0  2.9960000000000000e+00 1.2758950000000000e+01 9.8233800000000002e+00  -6.0624400000000001e-01 4.2255399999999999e-01 8.8740699999999995e-01
    22 0  3.4798200000000001e+00 3.5411999999999999e+00 1.8690999999999999e-01  -8.8115600000000005e-01 -1.3535990000000000e+00 -7.7070000000000005e-01
    23 0  3.5173399999999999e+00 3.4894500000000002e+00 3.2461000000000002e+00  -5.5797600000000003e-01 -8.9686800000000000e-01 -5.6787799999999999e-01
    24 0  3.6519800000000000e+00 3.3906399999999999e+00 6.6416000000000004e+00  -1.1108060000000000e+00 1.0915349999999999e+00 -1.7270099999999999e-01
    25 0  3.0471200000000001e+00 3.2668599999999999e+00 1.0034100000000000e+01  -2.4944400000000000e-01 1.4995529999999999e+00 -1.4471560000000001e+00
    26 0  2.9294400000000000e+00 6.5516300000000003e+00 1.3078939999999999e+01  -8.8432599999999995e-01 2.0216949999999998e+00 7.6610299999999998e-01
    27 0  3.5281899999999999e+00 6.7789900000000003e+00 2.9514200000000002e+00  -1.3083650000000000e+00 1.7361699999999999e-01 6.0036199999999995e-01
    28 0  3.5607400000000000e+00 7.0140900000000004e+00 6.7644399999999996e+00  4.9668099999999998e-01 -1.5796760000000001e+00 -1.0645260000000001e+00
    29 0  3.3982999999999999e+00 6.7947899999999999e+00 9.3777699999999999e+00  -7.6808299999999996e-01 -9.7714599999999996e-01 1.5490780000000000e+00
    30 0  3.1492100000000001e+00 9.5103399999999993e+00 1.2965830000000000e+01  -5.8692000000000000e-01 9.1264000000000001e-01 1.1582910000000000e+00
    31 0  3.3851599999999999e+00 9.8061399999999992e+00 3.1438400000000000e+00  2.4631800000000001e-01 2.3021800000000001e-01 7.6634999999999998e-01
    32 0  3.2485200000000001e+00 9.5539699999999996e+00 6.6339399999999999e+00  -8.0704200000000004e-01 1.8386400000000001e+00 4.5486799999999999e-01
    33 0  3.0299399999999999e+00 9.5686699999999991e+00 9.8183600000000002e+00  -1.2172080000000001e+00 5.8919100000000002e-01 1.3349700000000000e-01
    34 0  5.8981899999999996e+00 1.2802429999999999e+01 1.2613619999999999e+01  -1.1136189999999999e+00 -4.0939300000000001e-01 2.1987969999999999e+00
    35 0  6.2389999999999999e+00 1.2849610000000000e+01 3.5509400000000002e+00  -1.1447870000000000e+00 -1.6024000000000000e-02 3.2130599999999998e-01
    36 0  6.5578099999999999e+00 3.7336999999999998e-01 6.7052699999999996e+00  -9.0666199999999997e-01 -2.5157499999999999e-01 4.9295600000000001e-01
    37 0  5.8930400000000001e+00 1.9769999999999999e-01 9.9746500000000005e+00  1.7171190000000001e+00 -4.0140100000000001e-01 -6.0426400000000002e-01
    38 0  6.4036900000000001e+00 3.2290700000000001e+00 5.2415999999999996e-01  -7.9530999999999996e-01 7.0673299999999994e-01 -1.3940740000000000e+00
    39 0  6.3035100000000002e+00 3.1217500000000000e+00 3.2284999999999999e+00  4.5678000000000002e-01 8.1954099999999996e-01 6.5160700000000005e-01
    40 0  6.4623499999999998e+00 3.2635100000000001e+00 6.3363500000000004e+00  7.2257000000000002e-02 7.8513500000000003e-01 6.9523000000000001e-01
    41 0  6.3182000000000000e+00 3.3299599999999998e+00 1.0443600000000000e+01  3.0320700000000000e-01 -3.5532599999999998e-01 8.0573499999999998e-01
    42 0  6.4998699999999996e+00 6.5600800000000001e+00 1.2974990000000000e+01  3.3439900000000000e-01 5.0571699999999997e-01 5.3307099999999996e-01
    43 0  6.6226500000000001e+00 6.3468999999999998e+00 2.9192200000000001e+00  -7.2980000000000000e-01 9.5753100000000002e-01 5.6043000000000003e-02
    44 0  6.1001700000000003e+00 6.6319499999999998e+00 9.9030900000000006e+00  8.7156800000000001e-01 -3.1591300000000000e-01 -7.3246000000000006e-02
    45 0  6.3480400000000001e+00 9.7186000000000003e+00 1.2750640000000001e+01  5.4547500000000004e-01 -1.1339399999999999e-01 1.0988329999999999e+00
    46 0  6.5191200000000000e+00 9.9425699999999999e+00 3.4752200000000002e+00  -1.5678999999999998e-02 1.2093000000000000e-02 5.2599399999999996e-01
    47 0  6.7290000000000001e+00 9.9190500000000004e+00 6.7282599999999997e+00  -1.4059470000000001e+00 -6.2936000000000003e-01 -7.8685000000000005e-02
    48 0  6.9728599999999998e+00 9.6501999999999999e+00 9.8764900000000004e+00  -7.1127499999999999e-01 1.1684999999999999e-02 1.9354000000000000e-02
    49 0  9.3995599999999992e+00 -1.5190000000000000e-02 1.4938000000000001e-01  6.0105299999999995e-01 -4.8632700000000001e-01 7.2191000000000005e-02
    50 0  9.4607799999999997e+00 1.2509440000000000e+01 2.9262600000000001e+00  -3.7970399999999999e-01 1.8631190000000000e+00 7.9393300000000000e-01
    51 0  9.4420599999999997e+00 2.1068000000000001e-01 6.7490300000000003e+00  7.0959300000000003e-01 -8.2279800000000003e-01 3.4605900000000001e-01
    52 0  9.6577199999999994e+00 -7.8530000000000003e-02 9.7015600000000006e+00  5.9389400000000003e-01 -4.6558000000000002e-02 9.3221100000000001e-01
    53 0  9.4596900000000002e+00 2.8568400000000000e+00 1.2941789999999999e+01  8.6884600000000001e-01 4.9703900000000001e-01 7.4847600000000003e-01
    54 0  9.4944400000000009e+00 2.9131300000000002e+00 2.8451700000000000e+00  -6.8530999999999995e-02 -5.2360700000000004e-01 -3.3592800000000000e-01
    55 0  9.2739200000000004e+00 2.8566300000000000e+00 6.6510999999999996e+00  8.4165199999999996e-01 1.3022879999999999e+00 2.8309200000000001e-01
    56 0  9.8048199999999994e+00 2.6978700000000000e+00 1.0137600000000001e+01  -1.9529700000000000e-01 9.6928499999999995e-01 -4.3873699999999999e-01
    57 0  9.4669799999999995e+00 6.7073200000000002e+00 1.3020170000000000e+01  1.1108999999999999e-01 -8.7565099999999996e-01 1.0606770000000001e+00
    58 0  9.4112500000000008e+00 6.4688900000000000e+00 3.1422500000000002e+00  1.0256650000000000e+00 5.3264400000000001e-01 3.8958500000000001e-01
    59 0  8.8952600000000004e+00 6.3898000000000001e+00 6.3802599999999998e+00  2.1946219999999999e+00 -1.2036370000000001e+00 9.6159899999999998e-01
    60 0  9.9252099999999999e+00 6.0436500000000004e+00 9.7941599999999998e+00  3.1807800000000003e-01 6.3964299999999996e-01 -6.0241999999999997e-02
    61 0  9.3666499999999999e+00 9.8632000000000009e+00 1.3088990000000001e+01  -3.8954699999999998e-01 -5.0543499999999997e-01 9.0366000000000002e-02
    62 0  9.3454200000000007e+00 9.9073899999999995e+00 3.5032600000000000e+00  5.3068300000000002e-01 -6.1554399999999998e-01 -6.0635099999999997e-01
    63 0  9.3346800000000005e+00 9.9322499999999998e+00 6.5315700000000003e+00  7.3619100000000004e-01 5.7210999999999998e-02 9.4447999999999999e-01
    64 0  9.9230499999999999e+00 9.8252400000000009e+00 1.0177440000000001e+01  -8.6365700000000001e-01 -1.4428199999999999e-01 -1.1659500000000000e+00