BEGIN_CFG
 Size
    3
 Supercell
    3.0764600000000000e+00 0.0000000000000000e+00 0.0000000000000000e+00
    -1.0125299999999999e+00 4.0475700000000003e+00 0.0000000000000000e+00
    6.5986699999999995e-02 -1.0192700000000000e-01 1.6767099999999999e+00
 AtomData:  id type       cartes_x      cartes_y      cartes_z           fx          fy          fz
    1 0  2.0640100000000001e+00 4.0471399999999997e+00 2.0000000000000002e-05  -9.5256999999999994e-02 1.0044000000000000e-01 4.2826999999999997e-02
    2 0  -5.4439000000000004e-01 3.3225400000000000e+00 8.6848000000000003e-01  2.0184744999999999e+01 -3.2481209000000000e+01 -1.4049499000000001e+01
    3 0  2.6742300000000001e+00 6.2353000000000003e-01 8.0820000000000003e-01  -2.0089487999999999e+01 3.2380769000000001e+01 1.4006671000000001e+01
 Energy
    2.4721543000000001e+00
 PlusStress:  xx          yy          zz          yz          xz          xy
     1.9688910000000000e+01 4.2859099999999998e+01 5.5389490000000002e+01 1.5532959999999999e+01 -9.9939499999999999e+00 -2.6475320000000000e+01
END_CFG

BEGIN_CFG
 Size
    3
 Supercell
    1.9311199999999999e+00 0.0000000000000000e+00 0.0000000000000000e+00
    9.4559300000000002e-01 2.7122500000000000e+00 0.0000000000000000e+00
    3.8594899999999999e-01 1.1324300000000000e+00 4.2141200000000003e+00
 AtomData:  id type       cartes_x      cartes_y      cartes_z           fx          fy          fz
    1 0  5.5564000000000002e-01 1.5048600000000001e+00 2.3887600000000000e+00  3.6233499999999998e+00 -1.7417670000000001e+01 6.2700370000000003e+00
    2 0  2.2098700000000000e+00 2.6910500000000002e+00 2.0924200000000002e+00  4.6297670000000002e+00 3.0965340000000001e+01 2.8022311999999999e+01
    3 0  1.9950000000000001e+00 2.2257099999999999e+00 1.1015600000000001e+00  -8.2531169999999996e+00 -1.3547670000000000e+01 -3.4292349000000002e+01
 Energy
    -6.2766605599999998e+00
 PlusStress:  xx          yy          zz          yz          xz          xy
     1.6285499999999999e+00 3.1403839999999999e+01 3.6308630000000001e+01 8.2829899999999999e+00 9.2429400000000008e+00 -3.3376000000000000e-01
END_CFG

BEGIN_CFG
 Size
    3
 Supercell
    3.6991200000000002e+00 0.0000000000000000e+00 0.0000000000000000e+00
    -1.5787400000000000e+00 3.3403200000000002e+00 0.0000000000000000e+00
    -4.0900900000000001e-01 -5.6174500000000005e-01 1.8476600000000001e+00
 AtomData:  id type       cartes_x      cartes_y      cartes_z           fx          fy          fz
    1 0  -2.4487000000000000e-01 5.2125999999999995e-01 3.3976000000000001e-01  5.6144420000000004e+00 1.0607549999999999e+00 6.2847220000000004e+00
    2 0  1.7836500000000000e+00 3.1335000000000002e-01 4.7941000000000000e-01  -2.5107680999999999e+01 3.3429482000000000e+01 -2.8563803000000000e+01
    3 0  2.0949399999999998e+00 -3.2128000000000001e-01 1.2265100000000000e+00  1.9493238999999999e+01 -3.4490237000000000e+01 2.2279081000000001e+01
 Energy
    -2.7720300899999999e+00
 PlusStress:  xx          yy          zz          yz          xz          xy
     1.2756040000000000e+01 2.0874990000000000e+01 4.7196980000000003e+01 -2.2449770000000001e+01 1.1943960000000001e+01 -1.0801500000000001e+01
END_CFG

BEGIN_CFG
 Size
    6
 Supercell
    5.1658099999999996e+00 0.0000000000000000e+00 0.0000000000000000e+00
    1.0674300000000001e+00 2.6955900000000002e+00 0.0000000000000000e+00
    -5.8234400000000000e-03 1.6202399999999999e-02 3.2973300000000001e+00
 AtomData:  id type       cartes_x      cartes_y      cartes_z           fx          fy          fz
    1 0  4.3121400000000003e+00 6.1645000000000005e-01 3.2905099999999998e+00  -2.5429732999999999e+01 1.7864363000000001e+01 5.6363130000000004e+00
    2 0  2.9920000000000002e-01 1.7895000000000000e-01 3.1695099999999998e+00  5.1755411000000002e+01 9.2967999999999995e-01 2.8068470000000001e+01
    3 0  4.4573700000000001e+00 1.1393599999999999e+00 1.6206000000000000e+00  -4.3622300000000003e+00 8.8597239999999999e+00 -6.0157000000000002e-02
    4 0  1.8602700000000001e+00 8.2284999999999997e-01 1.0123000000000000e-01  3.7192599999999998e-01 1.2856920000000001e+00 1.7254100000000000e-01
    5 0  5.9436400000000003e+00 2.7009599999999998e+00 2.3626399999999999e+00  -2.2695851999999999e+01 -1.8362781999999999e+01 -4.6652825000000000e+01
    6 0  6.0432199999999998e+00 2.6848999999999998e+00 9.9617000000000000e-01  3.6047899999999999e-01 -1.0576677000000000e+01 1.2835658000000000e+01
 Energy
    -1.0071906589999999e+01
 PlusStress:  xx          yy          zz          yz          xz          xy
     4.3425469999999997e+01 2.0896080000000001e+01 9.2255880000000005e+01 8.5317699999999999e+00 1.4689420000000000e+01 -1.0867400000000000e+01
END_CFG

BEGIN_CFG
 Size
    6
 Supercell
    3.7597100000000001e+00 0.0000000000000000e+00 0.0000000000000000e+00
    -1.8798600000000001e+00 3.2560099999999998e+00 0.0000000000000000e+00
    0.0000000000000000e+00 0.0000000000000000e+00 3.0147100000000000e+00
 AtomData:  id type       cartes_x      cartes_y      cartes_z           fx          fy          fz
    1 0  1.8798600000000001e+00 1.0853400000000000e+00 2.3776000000000002e+00  -1.2999999999999999e-05 -2.4000000000000001e-05 -2.4709270000000001e+00
    2 0  2.2876699999999999e+00 2.1733699999999998e+00 8.4924999999999995e-01  4.4496370000000001e+00 2.8062422000000002e+01 3.7613099999999999e-01
    3 0  7.3368000000000000e-01 8.9449000000000001e-01 8.4924999999999995e-01  -2.6525596000000000e+01 -1.0177515000000000e+01 3.7609399999999998e-01
    4 0  2.6182200000000000e+00 1.8814000000000000e-01 8.4924999999999995e-01  2.2076778000000001e+01 -1.7883821999999999e+01 3.7609500000000001e-01
    5 0  1.8798600000000001e+00 1.0853400000000000e+00 8.2665999999999995e-01  -1.0380000000000001e-03 -1.1760000000000000e-03 1.5509679999999999e+00
    6 0  -0.0000000000000000e+00 2.1706699999999999e+00 8.0908000000000002e-01  2.3100000000000000e-04 1.1500000000000000e-04 -2.0836099999999999e-01
 Energy
    -1.5396708920000000e+01
 PlusStress:  xx          yy          zz          yz          xz          xy
     6.9620480000000001e+01 6.9621930000000006e+01 1.1171899999999999e+00 2.0000000000000002e-05 1.0000000000000001e-05 5.9999999999999995e-04
END_CFG

BEGIN_CFG
 Size
    6
 Supercell
    3.2256600000000000e+00 0.0000000000000000e+00 0.0000000000000000e+00
    -4.6088000000000003e-05 6.5583999999999998e+00 0.0000000000000000e+00
    1.7937000000000001e-05 -2.6982999999999999e-05 3.6234999999999999e+00
 AtomData:  id type       cartes_x      cartes_y      cartes_z           fx          fy          fz
    1 0  5.9019999999999995e-01 4.2543899999999999e+00 1.8145700000000000e+00  4.7992499999999999e-01 -1.2672934000000000e+01 9.7280000000000005e-03
    2 0  5.7987000000000000e-01 5.6767399999999997e+00 1.8101600000000000e+00  1.1807541000000001e+01 -3.5849677999999997e+01 -1.0734000000000000e-01
    3 0  2.2020300000000002e+00 4.4452100000000003e+00 1.8090599999999999e+00  -8.9407899999999996e-01 -6.3376654000000002e+01 -2.0936800000000000e-01
    4 0  2.2076199999999999e+00 5.4520299999999997e+00 1.8131200000000001e+00  -1.3741090000000000e+00 4.2263509999999997e+01 2.3044700000000001e-01
    5 0  3.0569899999999999e+00 6.4376600000000002e+00 1.8117799999999999e+00  -2.0485147000000001e+01 4.2662014999999997e+01 5.0000999999999997e-02
    6 0  1.3879500000000000e+00 6.5259000000000000e+00 1.8118099999999999e+00  1.0465869000000000e+01 2.6973739999999999e+01 2.6532000000000000e-02
 Energy
    -4.2921504400000003e+00
 PlusStress:  xx          yy          zz          yz          xz          xy
     3.6031649999999999e+01 1.4195043000000001e+02 6.4068999999999998e-01 2.5251000000000001e-01 -1.6870000000000000e-02 -5.9765199999999998e+00
END_CFG

BEGIN_CFG
 Size
    12
 Supercell
    5.0752400000000000e+00 0.0000000000000000e+00 0.0000000000000000e+00
    -2.5376200000000000e+00 4.3952900000000001e+00 0.0000000000000000e+00
    0.0000000000000000e+00 0.0000000000000000e+00 3.3080599999999998e+00
 AtomData:  id type       cartes_x      cartes_y      cartes_z           fx          fy          fz
    1 0  6.9128999999999996e-01 1.2686299999999999e+00 1.4241800000000000e+00  1.3695710000000001e+00 6.0152070000000002e+00 2.1738137999999999e+01
    2 0  1.0933100000000000e+00 4.3596500000000002e+00 1.4241800000000000e+00  -5.8940679999999999e+00 -1.8218230000000000e+00 2.1738170000000000e+01
    3 0  -1.7846000000000000e+00 3.1623000000000001e+00 1.4241800000000000e+00  4.5244549999999997e+00 -4.1934259999999997e+00 2.1737832000000001e+01
    4 0  3.2289099999999999e+00 3.1266600000000002e+00 2.2986000000000001e-01  1.3693820000000001e+00 -6.0150189999999997e+00 -2.1737829000000001e+01
    5 0  7.5302000000000002e-01 1.2329900000000000e+00 2.2986000000000001e-01  4.5247770000000003e+00 4.1935159999999998e+00 -2.1738130999999999e+01
    6 0  3.6309300000000002e+00 3.5639999999999998e-02 2.2986000000000001e-01  -5.8940820000000000e+00 1.8215150000000000e+00 -2.1738182999999999e+01
    7 0  1.8463300000000000e+00 3.1266600000000002e+00 1.8838900000000001e+00  -1.3692830000000000e+00 -6.0151680000000001e+00 -2.1737919000000002e+01
    8 0  1.4443100000000000e+00 3.5639999999999998e-02 1.8838900000000001e+00  5.8939170000000001e+00 1.8214809999999999e+00 -2.1737976000000000e+01
    9 0  4.3222199999999997e+00 1.2329900000000000e+00 1.8838900000000001e+00  -4.5247130000000002e+00 4.1936590000000002e+00 -2.1738239000000000e+01
    10 0  -6.9128999999999996e-01 1.2686299999999999e+00 3.0782099999999999e+00  -1.3694489999999999e+00 6.0153639999999999e+00 2.1738236000000001e+01
    11 0  1.7846000000000000e+00 3.1623000000000001e+00 3.0782099999999999e+00  -4.5244059999999999e+00 -4.1935589999999996e+00 2.1737938000000000e+01
    12 0  -1.0933100000000000e+00 4.3596500000000002e+00 3.0782099999999999e+00  5.8939009999999996e+00 -1.8217479999999999e+00 2.1737964000000002e+01
 Energy
    -3.4492988619999998e+01
 PlusStress:  xx          yy          zz          yz          xz          xy
     4.0936030000000002e+01 4.0935910000000000e+01 1.8861606000000000e+02 -2.0000000000000002e-05 0.0000000000000000e+00 1.0000000000000001e-05
END_CFG

BEGIN_CFG
 Size
    12
 Supercell
    4.5977100000000002e+00 0.0000000000000000e+00 0.0000000000000000e+00
    -2.0984600000000002e+00 4.0909000000000004e+00 0.0000000000000000e+00
    -1.2496300000000000e+00 -2.0454500000000002e+00 3.9234599999999999e+00
 AtomData:  id type       cartes_x      cartes_y      cartes_z           fx          fy          fz
    1 0  1.3429999999999999e-02 -1.0051000000000001e+00 2.5076000000000001e+00  2.4212961000000000e+01 -1.5993577000000000e+01 -1.1201460000000001e+01
    2 0  3.4919000000000000e-01 1.5986499999999999e+00 1.4158599999999999e+00  -2.5280739000000001e+01 1.4243534000000000e+01 1.1201921000000000e+01
    3 0  -1.6517299999999999e+00 1.2189999999999999e-02 3.3880100000000000e+00  -1.0092908000000000e+01 4.9650540000000003e+00 -2.9000457999999998e+01
    4 0  2.0143499999999999e+00 5.8135999999999999e-01 5.3546000000000005e-01  9.0248840000000001e+00 -6.7146210000000002e+00 2.8999846000000002e+01
    5 0  -4.0210000000000001e-01 2.0576400000000001e+00 5.3546000000000005e-01  -1.0093493000000000e+01 4.9655760000000004e+00 2.8999829999999999e+01
    6 0  7.6471999999999996e-01 -1.4640899999999999e+00 3.3880100000000000e+00  9.0243020000000005e+00 -6.7142830000000000e+00 -2.9000281000000001e+01
    7 0  -9.0042999999999995e-01 -4.4679000000000002e-01 2.5076000000000001e+00  -2.5281641000000000e+01 1.4244574999999999e+01 -1.1201185000000001e+01
    8 0  1.2630600000000001e+00 1.0403500000000001e+00 1.4158599999999999e+00  2.4212174000000001e+01 -1.5992468000000001e+01 1.1201929000000000e+01
    9 0  1.2065800000000000e+00 1.9750000000000001e+00 2.6738800000000000e+00  1.0685760000000000e+00 1.7490820000000000e+00 2.0612379999999999e+00
    10 0  -4.3040000000000002e-02 -7.0449999999999999e-02 1.2495900000000000e+00  1.0686670000000000e+00 1.7490509999999999e+00 -2.0615500000000000e+00
    11 0  3.4883400000000000e+00 5.8099999999999996e-01 0.0000000000000000e+00  2.8276599999999998e+00 6.7439199999999999e-01 6.7000000000000002e-05
    12 0  -1.0751700000000000e+00 3.3689900000000002e+00 0.0000000000000000e+00  -6.9044300000000003e-01 2.8236859999999999e+00 1.0200000000000000e-04
 Energy
    -2.9398863250000002e+01
 PlusStress:  xx          yy          zz          yz          xz          xy
     1.1487648000000000e+02 5.5765900000000002e+01 1.5007732999999999e+02 -3.8000000000000002e-04 -1.3999999999999999e-04 -5.7616639999999997e+01
END_CFG

BEGIN_CFG
 Size
    12
 Supercell
    4.4378599999999997e+00 0.0000000000000000e+00 0.0000000000000000e+00
    1.3004700000000000e+00 4.2431400000000004e+00 0.0000000000000000e+00
    1.3004599999999999e+00 9.5507900000000001e-01 4.1343100000000002e+00
 AtomData:  id type       cartes_x      cartes_y      cartes_z           fx          fy          fz
    1 0  4.6937600000000002e+00 3.2895300000000001e+00 3.8691300000000002e+00  -8.0753399999999997e-01 -5.1271849999999999e+00 1.6982704999999999e+01
    2 0  5.6911199999999997e+00 3.1613799999999999e+00 2.3343200000000000e+00  1.4571508000000000e+01 -5.3114210000000002e+00 -8.8866399999999999e+00
    3 0  4.5263400000000003e+00 4.5611699999999997e+00 2.5548600000000001e+00  -5.1371370000000001e+00 1.6732087000000000e+01 -3.1876690000000001e+00
    4 0  1.3476800000000000e+00 2.2122400000000000e+00 1.5794299999999999e+00  -1.4572547000000000e+01 9.8560060000000007e+00 3.1758479999999998e+00
    5 0  2.3450199999999999e+00 6.8801000000000001e-01 1.8000300000000000e+00  8.1045199999999995e-01 -1.5395735999999999e+01 8.8218599999999991e+00
    6 0  2.5124399999999998e+00 1.6822800000000000e+00 2.6518999999999998e-01  5.1356409999999997e+00 -6.6134499999999996e-01 -1.7019846999999999e+01
    7 0  1.8758400000000000e+00 1.3853200000000001e+00 1.1017999999999999e+00  -2.2568944999999999e+01 -1.6995204999999999e+01 -1.3415722000000001e+01
    8 0  5.1629500000000004e+00 3.8128899999999999e+00 3.0325199999999999e+00  2.2568570000000001e+01 1.6892416999999998e+01 1.3542213000000000e+01
    9 0  1.7898099999999999e+00 3.5813000000000001e+00 0.0000000000000000e+00  4.4648310000000002e+00 -6.0044370000000002e+00 -3.7904000000000000e-02
    10 0  5.7383100000000002e+00 1.4679800000000001e+00 3.4894200000000000e+00  -3.8099999999999999e-04 4.6219479999999997e+00 -5.8108480000000000e+00
    11 0  5.2489900000000000e+00 4.3921000000000001e+00 6.4488000000000001e-01  -4.4645020000000004e+00 1.3884479999999999e+00 5.8414020000000004e+00
    12 0  3.5194000000000001e+00 2.5991100000000000e+00 2.0671599999999999e+00  4.1999999999999998e-05 4.4250000000000001e-03 -5.3980000000000000e-03
 Energy
    -1.0743814600000000e+01
 PlusStress:  xx          yy          zz          yz          xz          xy
     1.0053573000000000e+02 1.2278216999999999e+02 1.3241806000000000e+02 -2.0852200000000000e+01 -2.8527149999999999e+01 -3.5871670000000002e+01
END_CFG

BEGIN_CFG
 Size
    28
 Supercell
    6.0701000000000001e+00 0.0000000000000000e+00 0.0000000000000000e+00
    2.0233699999999999e+00 5.7229400000000004e+00 0.0000000000000000e+00
    2.0233699999999999e+00 -2.8614700000000002e+00 4.9562099999999996e+00
 AtomData:  id type       cartes_x      cartes_y      cartes_z           fx          fy          fz
    1 0  1.2111400000000001e+00 0.0000000000000000e+00 0.0000000000000000e+00  9.7552399999999995e-01 -9.2000000000000000e-05 4.6000000000000000e-05
    2 0  5.6663800000000002e+00 5.7094000000000000e-01 9.8889000000000005e-01  -3.2509300000000002e-01 4.5985900000000002e-01 7.9647699999999999e-01
    3 0  7.6897500000000001e+00 4.5810700000000004e+00 0.0000000000000000e+00  -3.2505699999999998e-01 -9.1974599999999995e-01 9.0000000000000002e-06
    4 0  7.6897500000000001e+00 -2.2905300000000000e+00 3.9673200000000000e+00  -3.2514599999999999e-01 4.5986199999999999e-01 -7.9650200000000004e-01
    5 0  8.9773099999999992e+00 2.0557099999999999e+00 3.5605899999999999e+00  -8.3130550000000003e+00 -5.8777280000000003e+00 -1.0180913000000000e+01
    6 0  7.2096200000000001e+00 8.0576000000000003e-01 1.3956200000000001e+00  8.3129059999999999e+00 5.8785759999999998e+00 1.0180980999999999e+01
    7 0  4.9305700000000003e+00 -8.0576000000000003e-01 1.3956200000000001e+00  -8.3123100000000001e+00 -5.8780539999999997e+00 1.0181433000000000e+01
    8 0  5.1862599999999999e+00 3.6672300000000000e+00 3.5605899999999999e+00  8.3128309999999992e+00 5.8783230000000000e+00 -1.0180826000000000e+01
    9 0  4.9305700000000003e+00 1.6115299999999999e+00 0.0000000000000000e+00  -8.3134809999999995e+00 1.1755739000000000e+01 4.8000000000000001e-05
    10 0  3.1628900000000000e+00 4.1114100000000002e+00 0.0000000000000000e+00  8.3128940000000000e+00 -1.1756199000000001e+01 -2.0799999999999999e-04
    11 0  8.0700500000000002e+00 -8.0613999999999997e-01 4.8802399999999997e+00  -1.0209830000000000e+01 2.1169636000000001e+01 -6.0504420000000003e+00
    12 0  2.9380299999999999e+00 4.2978199999999998e+00 1.1675300000000000e+00  8.4427079999999997e+00 -2.2419585000000001e+01 3.8857370000000002e+00
    13 0  4.1401100000000000e+00 7.0718000000000003e-01 7.5969999999999996e-02  -1.6555115000000001e+01 1.6684342999999998e+01 6.0504810000000004e+00
    14 0  5.0854600000000003e+00 1.5240800000000001e+00 3.7886799999999998e+00  1.8323432000000000e+01 -1.5433564000000001e+01 -3.8849830000000001e+00
    15 0  4.0233200000000000e+00 1.7680100000000001e+00 3.2142300000000001e+00  -1.0210998999999999e+01 -1.5824490000000001e+01 -1.5308453999999999e+01
    16 0  8.1868400000000001e+00 2.5736699999999999e+00 4.3057900000000000e+00  -1.6555641000000001e+01 -3.1027779999999998e+00 -1.7474827999999999e+01
    17 0  1.0387299999999999e+00 -3.4240999999999999e-01 1.7419800000000001e+00  1.8322611999999999e+01 4.3505269999999996e+00 1.5308628000000001e+01
    18 0  6.9847599999999996e+00 1.7236700000000000e+00 6.5042999999999995e-01  8.4427520000000005e+00 1.4575157000000001e+01 1.7473072999999999e+01
    19 0  6.0466800000000003e+00 -9.6187000000000000e-01 1.8179600000000000e+00  -1.0210073000000000e+01 -5.3448700000000002e+00 2.1358699999999999e+01
    20 0  3.0621000000000000e+00 -1.1816599999999999e+00 4.3817599999999999e+00  1.8322893000000001e+01 1.1081769000000000e+01 -1.1422891000000000e+01
    21 0  4.9614000000000003e+00 2.5629200000000001e+00 3.1382500000000002e+00  8.4428999999999998e+00 7.8449419999999996e+00 -2.1359234000000001e+01
    22 0  6.1634799999999998e+00 5.3035500000000004e+00 5.7445000000000002e-01  -1.6555654000000001e+01 -1.3581607000000000e+01 1.1423622999999999e+01
    23 0  5.0679499999999997e+00 -7.0862000000000003e-01 3.7288399999999999e+00  -5.9575000000000003e-02 -4.2118000000000003e-02 -7.2982000000000005e-02
    24 0  5.0488700000000000e+00 3.5700900000000000e+00 1.2273700000000001e+00  5.9538000000000001e-02 4.2102000000000001e-02 7.2930999999999996e-02
    25 0  7.0913199999999996e+00 7.2211000000000003e-01 3.7054800000000001e+00  -5.9565000000000000e-02 -4.2112999999999998e-02 7.3000999999999996e-02
    26 0  3.0255100000000001e+00 2.1393599999999999e+00 1.2507400000000000e+00  5.9598999999999999e-02 4.2137000000000001e-02 -7.2942000000000007e-02
    27 0  3.0445899999999999e+00 -1.3490000000000000e-02 2.4781100000000000e+00  -5.9552000000000001e-02 8.4225999999999995e-02 1.9000000000000001e-05
    28 0  7.0722399999999999e+00 2.8749600000000002e+00 2.4781100000000000e+00  5.9559000000000001e-02 -8.4254999999999997e-02 1.8000000000000000e-05
 Energy
    -6.2724367559999997e+01
 PlusStress:  xx          yy          zz          yz          xz          xy
     2.1851087999999999e+02 2.1851295999999999e+02 2.1851258999999999e+02 -9.6000000000000002e-04 1.5200000000000001e-03 3.0000000000000001e-05
END_CFG

