BEGIN_CFG
 Size
    2
 Supercell
    0.0000000000000000e+00 2.0000000000000000e+00 2.0000000000000000e+00
    2.0000000000000000e+00 0.0000000000000000e+00 2.0000000000000000e+00
    2.0000000000000000e+00 2.0000000000000000e+00 0.0000000000000000e+00
 AtomData:  id type       cartes_x      cartes_y      cartes_z      charge
    1 0  0.0000000000000000e+00 0.0000000000000000e+00 0.0000000000000000e+00    1.0000000000000000e+00
    2 1  1.0000000000000000e+00 1.0000000000000000e+00 1.0000000000000000e+00    -1.0000000000000000e+00
END_CFG

