BEGIN_CFG
 Size
    8
 Supercell
    4.0000000000000000e+00 0.0000000000000000e+00 0.0000000000000000e+00
    0.0000000000000000e+00 4.0000000000000000e+00 0.0000000000000000e+00
    0.0000000000000000e+00 0.0000000000000000e+00 4.0000000000000000e+00
 AtomData:  id type       cartes_x      cartes_y      cartes_z      charge
    1 0  0.0000000000000000e+00 0.0000000000000000e+00 0.0000000000000000e+00    1.0000000000000000e+00
    2 0  2.0000000000000000e+00 2.0000000000000000e+00 0.0000000000000000e+00    1.0000000000000000e+00
    3 0  2.0000000000000000e+00 0.0000000000000000e+00 2.0000000000000000e+00    1.0000000000000000e+00
    4 0  0.0000000000000000e+00 2.0000000000000000e+00 2.0000000000000000e+00    1.0000000000000000e+00
    5 1  1.0000000000000000e+00 1.0000000000000000e+00 1.0000000000000000e+00    -1.0000000000000000e+00
    6 1  1.0000000000000000e+00 3.0000000000000000e+00 3.0000000000000000e+00    -1.0000000000000000e+00
    7 1  3.0000000000000000e+00 1.0000000000000000e+00 3.0000000000000000e+00    -1.0000000000000000e+00
    8 1  3.0000000000000000e+00 3.0000000000000000e+00 1.0000000000000000e+00    -1.0000000000000000e+00
END_CFG

