BEGIN_CFG
 Size
    4
 Supercell
    1.0000000000000000e+01 0.0000000000000000e+00 0.0000000000000000e+00
    -5.0004999999999997e+00 8.6602499999999996e+00 0.0000000000000000e+00
    0.0000000000000000e+00 0.0000000000000000e+00 1.6329999999999998e+01
 AtomData:  id type       cartes_x      cartes_y      cartes_z      charge
    1 0  -5.0000000000000001e-04 5.7737900000000000e+00 0.0000000000000000e+00    1.0000000000000000e+00
    2 0  5.0004999999999997e+00 2.8864600000000000e+00 8.1649999999999991e+00    1.0000000000000000e+00
    3 1  -5.0000000000000001e-04 5.7737900000000000e+00 6.1237500000000002e+00    -1.0000000000000000e+00
    4 1  5.0004999999999997e+00 2.8864600000000000e+00 1.4288700000000000e+01    -1.0000000000000000e+00
END_CFG

