BEGIN_CFG
 Size
    4
 Supercell
    3.8510650000000002e+00 0.0000000000000000e+00 0.0000000000000000e+00
    -1.9255329999999999e+00 3.3351199999999999e+00 0.0000000000000000e+00
    0.0000000000000000e+00 0.0000000000000000e+00 6.3123469999999999e+00
 AtomData:  id type       cartes_x      cartes_y      cartes_z      charge
    1 0  0.0000000000000000e+00 2.2234099999999999e+00 9.2160300000000001e-04    1.0000000000000000e+00
    2 0  1.9255300000000000e+00 1.1117100000000000e+00 3.1570999999999998e+00    1.0000000000000000e+00
    3 1  0.0000000000000000e+00 2.2234099999999999e+00 2.3662100000000001e+00    -1.0000000000000000e+00
    4 1  1.9255300000000000e+00 1.1117100000000000e+00 5.5223800000000001e+00    -1.0000000000000000e+00
END_CFG

