BEGIN_CFG
Size
  98
Supercell
  8.636000 0.000000 0.000000
  -4.318000 7.478995 0.000000
  0.000000 0.000000 14.588200
AtomData:  id type       cartes_x      cartes_y      cartes_z
       1    0    -2.159000     3.739498     0.000000
       2    0     4.318000     0.000000     3.647502
       3    1    -0.720307     1.247609     1.823525
       4    1    -2.879307     4.987106     1.823525
       5    1     3.597693     1.247609     1.823525
       6    1     1.438693     4.987106     1.823525
       7    1     1.438693     2.491889     1.823525
       8    1    -0.720307     6.231386     1.823525
       9    1     5.756693     2.491889     1.823525
      10    1     3.597693     6.231386     1.823525
      11    1     1.440614     0.000000     1.823525
      12    1    -0.718386     3.739498     1.823525
      13    1     5.758614     0.000000     1.823525
      14    1     3.599614     3.739498     1.823525
      15    1    -1.438693     2.491889     1.823525
      16    1    -3.597693     6.231386     1.823525
      17    1     2.879307     2.491889     1.823525
      18    1     0.720307     6.231386     1.823525
      19    1     0.720307     1.247609     1.823525
      20    1    -1.438693     4.987106     1.823525
      21    1     5.038307     1.247609     1.823525
      22    1     2.879307     4.987106     1.823525
      23    1     2.877385     0.000000     1.823525
      24    1     0.718386     3.739498     1.823525
      25    1     7.195385     0.000000     1.823525
      26    1     5.036385     3.739498     1.823525
      27    1    -0.720307     1.247609     5.470525
      28    1    -2.879307     4.987106     5.470525
      29    1     3.597693     1.247609     5.470525
      30    1     1.438693     4.987106     5.470525
      31    1     1.438693     2.491889     5.470525
      32    1    -0.720307     6.231386     5.470525
      33    1     5.756693     2.491889     5.470525
      34    1     3.597693     6.231386     5.470525
      35    1     1.440614     0.000000     5.470525
      36    1    -0.718386     3.739498     5.470525
      37    1     5.758614     0.000000     5.470525
      38    1     3.599614     3.739498     5.470525
      39    1    -1.438693     2.491889     5.470525
      40    1    -3.597693     6.231386     5.470525
      41    1     2.879307     2.491889     5.470525
      42    1     0.720307     6.231386     5.470525
      43    1     0.720307     1.247609     5.470525
      44    1    -1.438693     4.987106     5.470525
      45    1     5.038307     1.247609     5.470525
      46    1     2.879307     4.987106     5.470525
      47    1     2.877385     0.000000     5.470525
      48    1     0.718386     3.739498     5.470525
      49    1     7.195385     0.000000     5.470525
      50    1     5.036385     3.739498     5.470525
      51    1    -0.720307     1.247609     9.117525
      52    1    -2.879307     4.987106     9.117525
      53    1     3.597693     1.247609     9.117525
      54    1     1.438693     4.987106     9.117525
      55    1     1.438693     2.491889     9.117525
      56    1    -0.720307     6.231386     9.117525
      57    1     5.756693     2.491889     9.117525
      58    1     3.597693     6.231386     9.117525
      59    1     1.440614     0.000000     9.117525
      60    1    -0.718386     3.739498     9.117525
      61    1     5.758614     0.000000     9.117525
      62    1     3.599614     3.739498     9.117525
      63    1    -1.438693     2.491889     9.117525
      64    1    -3.597693     6.231386     9.117525
      65    1     2.879307     2.491889     9.117525
      66    1     0.720307     6.231386     9.117525
      67    1     0.720307     1.247609     9.117525
      68    1    -1.438693     4.987106     9.117525
      69    1     5.038307     1.247609     9.117525
      70    1     2.879307     4.987106     9.117525
      71    1     2.877385     0.000000     9.117525
      72    1     0.718386     3.739498     9.117525
      73    1     7.195385     0.000000     9.117525
      74    1     5.036385     3.739498     9.117525
      75    1    -0.720307     1.247609    12.764525
      76    1    -2.879307     4.987106    12.764525
      77    1     3.597693     1.247609    12.764525
      78    1     1.438693     4.987106    12.764525
      79    1     1.438693     2.491889    12.764525
      80    1    -0.720307     6.231386    12.764525
      81    1     5.756693     2.491889    12.764525
      82    1     3.597693     6.231386    12.764525
      83    1     1.440614     0.000000    12.764525
      84    1    -0.718386     3.739498    12.764525
      85    1     5.758614     0.000000    12.764525
      86    1     3.599614     3.739498    12.764525
      87    1    -1.438693     2.491889    12.764525
      88    1    -3.597693     6.231386    12.764525
      89    1     2.879307     2.491889    12.764525
      90    1     0.720307     6.231386    12.764525
      91    1     0.720307     1.247609    12.764525
      92    1    -1.438693     4.987106    12.764525
      93    1     5.038307     1.247609    12.764525
      94    1     2.879307     4.987106    12.764525
      95    1     2.877385     0.000000    12.764525
      96    1     0.718386     3.739498    12.764525
      97    1     7.195385     0.000000    12.764525
      98    1     5.036385     3.739498    12.764525
Feature   Structure_0    Generation
END_CFG

BEGIN_CFG
Size
  98
Supercell
  8.636000 0.000000 0.000000
  -4.318000 7.478995 0.000000
  0.000000 0.000000 14.588200
AtomData:  id type       cartes_x      cartes_y      cartes_z
       1    0    -2.159000     3.739498    10.941500
       2    0    -2.159000     3.739498     0.000000
       3    1    -0.720307     1.247609     1.823525
       4    1    -2.879307     4.987106     1.823525
       5    1     3.597693     1.247609     1.823525
       6    1     1.438693     4.987106     1.823525
       7    1     1.438693     2.491889     1.823525
       8    1    -0.720307     6.231386     1.823525
       9    1     5.756693     2.491889     1.823525
      10    1     3.597693     6.231386     1.823525
      11    1     1.440614     0.000000     1.823525
      12    1    -0.718386     3.739498     1.823525
      13    1     5.758614     0.000000     1.823525
      14    1     3.599614     3.739498     1.823525
      15    1    -1.438693     2.491889     1.823525
      16    1    -3.597693     6.231386     1.823525
      17    1     2.879307     2.491889     1.823525
      18    1     0.720307     6.231386     1.823525
      19    1     0.720307     1.247609     1.823525
      20    1    -1.438693     4.987106     1.823525
      21    1     5.038307     1.247609     1.823525
      22    1     2.879307     4.987106     1.823525
      23    1     2.877385     0.000000     1.823525
      24    1     0.718386     3.739498     1.823525
      25    1     7.195385     0.000000     1.823525
      26    1     5.036385     3.739498     1.823525
      27    1    -0.720307     1.247609     5.470525
      28    1    -2.879307     4.987106     5.470525
      29    1     3.597693     1.247609     5.470525
      30    1     1.438693     4.987106     5.470525
      31    1     1.438693     2.491889     5.470525
      32    1    -0.720307     6.231386     5.470525
      33    1     5.756693     2.491889     5.470525
      34    1     3.597693     6.231386     5.470525
      35    1     1.440614     0.000000     5.470525
      36    1    -0.718386     3.739498     5.470525
      37    1     5.758614     0.000000     5.470525
      38    1     3.599614     3.739498     5.470525
      39    1    -1.438693     2.491889     5.470525
      40    1    -3.597693     6.231386     5.470525
      41    1     2.879307     2.491889     5.470525
      42    1     0.720307     6.231386     5.470525
      43    1     0.720307     1.247609     5.470525
      44    1    -1.438693     4.987106     5.470525
      45    1     5.038307     1.247609     5.470525
      46    1     2.879307     4.987106     5.470525
      47    1     2.877385     0.000000     5.470525
      48    1     0.718386     3.739498     5.470525
      49    1     7.195385     0.000000     5.470525
      50    1     5.036385     3.739498     5.470525
      51    1    -0.720307     1.247609     9.117525
      52    1    -2.879307     4.987106     9.117525
      53    1     3.597693     1.247609     9.117525
      54    1     1.438693     4.987106     9.117525
      55    1     1.438693     2.491889     9.117525
      56    1    -0.720307     6.231386     9.117525
      57    1     5.756693     2.491889     9.117525
      58    1     3.597693     6.231386     9.117525
      59    1     1.440614     0.000000     9.117525
      60    1    -0.718386     3.739498     9.117525
      61    1     5.758614     0.000000     9.117525
      62    1     3.599614     3.739498     9.117525
      63    1    -1.438693     2.491889     9.117525
      64    1    -3.597693     6.231386     9.117525
      65    1     2.879307     2.491889     9.117525
      66    1     0.720307     6.231386     9.117525
      67    1     0.720307     1.247609     9.117525
      68    1    -1.438693     4.987106     9.117525
      69    1     5.038307     1.247609     9.117525
      70    1     2.879307     4.987106     9.117525
      71    1     2.877385     0.000000     9.117525
      72    1     0.718386     3.739498     9.117525
      73    1     7.195385     0.000000     9.117525
      74    1     5.036385     3.739498     9.117525
      75    1    -0.720307     1.247609    12.764525
      76    1    -2.879307     4.987106    12.764525
      77    1     3.597693     1.247609    12.764525
      78    1     1.438693     4.987106    12.764525
      79    1     1.438693     2.491889    12.764525
      80    1    -0.720307     6.231386    12.764525
      81    1     5.756693     2.491889    12.764525
      82    1     3.597693     6.231386    12.764525
      83    1     1.440614     0.000000    12.764525
      84    1    -0.718386     3.739498    12.764525
      85    1     5.758614     0.000000    12.764525
      86    1     3.599614     3.739498    12.764525
      87    1    -1.438693     2.491889    12.764525
      88    1    -3.597693     6.231386    12.764525
      89    1     2.879307     2.491889    12.764525
      90    1     0.720307     6.231386    12.764525
      91    1     0.720307     1.247609    12.764525
      92    1    -1.438693     4.987106    12.764525
      93    1     5.038307     1.247609    12.764525
      94    1     2.879307     4.987106    12.764525
      95    1     2.877385     0.000000    12.764525
      96    1     0.718386     3.739498    12.764525
      97    1     7.195385     0.000000    12.764525
      98    1     5.036385     3.739498    12.764525
Feature   Structure_1    Generation
END_CFG

BEGIN_CFG
Size
  98
Supercell
  8.636000 0.000000 0.000000
  -4.318000 7.478995 0.000000
  0.000000 0.000000 14.588200
AtomData:  id type       cartes_x      cartes_y      cartes_z
       1    0     0.000000     0.000000     7.294494
       2    0     0.000000     0.000000     0.000000
       3    1    -0.720307     1.247609     1.823525
       4    1    -2.879307     4.987106     1.823525
       5    1     3.597693     1.247609     1.823525
       6    1     1.438693     4.987106     1.823525
       7    1     1.438693     2.491889     1.823525
       8    1    -0.720307     6.231386     1.823525
       9    1     5.756693     2.491889     1.823525
      10    1     3.597693     6.231386     1.823525
      11    1     1.440614     0.000000     1.823525
      12    1    -0.718386     3.739498     1.823525
      13    1     5.758614     0.000000     1.823525
      14    1     3.599614     3.739498     1.823525
      15    1    -1.438693     2.491889     1.823525
      16    1    -3.597693     6.231386     1.823525
      17    1     2.879307     2.491889     1.823525
      18    1     0.720307     6.231386     1.823525
      19    1     0.720307     1.247609     1.823525
      20    1    -1.438693     4.987106     1.823525
      21    1     5.038307     1.247609     1.823525
      22    1     2.879307     4.987106     1.823525
      23    1     2.877385     0.000000     1.823525
      24    1     0.718386     3.739498     1.823525
      25    1     7.195385     0.000000     1.823525
      26    1     5.036385     3.739498     1.823525
      27    1    -0.720307     1.247609     5.470525
      28    1    -2.879307     4.987106     5.470525
      29    1     3.597693     1.247609     5.470525
      30    1     1.438693     4.987106     5.470525
      31    1     1.438693     2.491889     5.470525
      32    1    -0.720307     6.231386     5.470525
      33    1     5.756693     2.491889     5.470525
      34    1     3.597693     6.231386     5.470525
      35    1     1.440614     0.000000     5.470525
      36    1    -0.718386     3.739498     5.470525
      37    1     5.758614     0.000000     5.470525
      38    1     3.599614     3.739498     5.470525
      39    1    -1.438693     2.491889     5.470525
      40    1    -3.597693     6.231386     5.470525
      41    1     2.879307     2.491889     5.470525
      42    1     0.720307     6.231386     5.470525
      43    1     0.720307     1.247609     5.470525
      44    1    -1.438693     4.987106     5.470525
      45    1     5.038307     1.247609     5.470525
      46    1     2.879307     4.987106     5.470525
      47    1     2.877385     0.000000     5.470525
      48    1     0.718386     3.739498     5.470525
      49    1     7.195385     0.000000     5.470525
      50    1     5.036385     3.739498     5.470525
      51    1    -0.720307     1.247609     9.117525
      52    1    -2.879307     4.987106     9.117525
      53    1     3.597693     1.247609     9.117525
      54    1     1.438693     4.987106     9.117525
      55    1     1.438693     2.491889     9.117525
      56    1    -0.720307     6.231386     9.117525
      57    1     5.756693     2.491889     9.117525
      58    1     3.597693     6.231386     9.117525
      59    1     1.440614     0.000000     9.117525
      60    1    -0.718386     3.739498     9.117525
      61    1     5.758614     0.000000     9.117525
      62    1     3.599614     3.739498     9.117525
      63    1    -1.438693     2.491889     9.117525
      64    1    -3.597693     6.231386     9.117525
      65    1     2.879307     2.491889     9.117525
      66    1     0.720307     6.231386     9.117525
      67    1     0.720307     1.247609     9.117525
      68    1    -1.438693     4.987106     9.117525
      69    1     5.038307     1.247609     9.117525
      70    1     2.879307     4.987106     9.117525
      71    1     2.877385     0.000000     9.117525
      72    1     0.718386     3.739498     9.117525
      73    1     7.195385     0.000000     9.117525
      74    1     5.036385     3.739498     9.117525
      75    1    -0.720307     1.247609    12.764525
      76    1    -2.879307     4.987106    12.764525
      77    1     3.597693     1.247609    12.764525
      78    1     1.438693     4.987106    12.764525
      79    1     1.438693     2.491889    12.764525
      80    1    -0.720307     6.231386    12.764525
      81    1     5.756693     2.491889    12.764525
      82    1     3.597693     6.231386    12.764525
      83    1     1.440614     0.000000    12.764525
      84    1    -0.718386     3.739498    12.764525
      85    1     5.758614     0.000000    12.764525
      86    1     3.599614     3.739498    12.764525
      87    1    -1.438693     2.491889    12.764525
      88    1    -3.597693     6.231386    12.764525
      89    1     2.879307     2.491889    12.764525
      90    1     0.720307     6.231386    12.764525
      91    1     0.720307     1.247609    12.764525
      92    1    -1.438693     4.987106    12.764525
      93    1     5.038307     1.247609    12.764525
      94    1     2.879307     4.987106    12.764525
      95    1     2.877385     0.000000    12.764525
      96    1     0.718386     3.739498    12.764525
      97    1     7.195385     0.000000    12.764525
      98    1     5.036385     3.739498    12.764525
Feature   Structure_2    Generation
END_CFG

BEGIN_CFG
Size
  98
Supercell
  8.636000 0.000000 0.000000
  -4.318000 7.478995 0.000000
  0.000000 0.000000 14.588200
AtomData:  id type       cartes_x      cartes_y      cartes_z
       1    0     4.318000     0.000000     0.000000
       2    0    -2.159000     3.739498     0.000000
       3    1    -0.720307     1.247609     1.823525
       4    1    -2.879307     4.987106     1.823525
       5    1     3.597693     1.247609     1.823525
       6    1     1.438693     4.987106     1.823525
       7    1     1.438693     2.491889     1.823525
       8    1    -0.720307     6.231386     1.823525
       9    1     5.756693     2.491889     1.823525
      10    1     3.597693     6.231386     1.823525
      11    1     1.440614     0.000000     1.823525
      12    1    -0.718386     3.739498     1.823525
      13    1     5.758614     0.000000     1.823525
      14    1     3.599614     3.739498     1.823525
      15    1    -1.438693     2.491889     1.823525
      16    1    -3.597693     6.231386     1.823525
      17    1     2.879307     2.491889     1.823525
      18    1     0.720307     6.231386     1.823525
      19    1     0.720307     1.247609     1.823525
      20    1    -1.438693     4.987106     1.823525
      21    1     5.038307     1.247609     1.823525
      22    1     2.879307     4.987106     1.823525
      23    1     2.877385     0.000000     1.823525
      24    1     0.718386     3.739498     1.823525
      25    1     7.195385     0.000000     1.823525
      26    1     5.036385     3.739498     1.823525
      27    1    -0.720307     1.247609     5.470525
      28    1    -2.879307     4.987106     5.470525
      29    1     3.597693     1.247609     5.470525
      30    1     1.438693     4.987106     5.470525
      31    1     1.438693     2.491889     5.470525
      32    1    -0.720307     6.231386     5.470525
      33    1     5.756693     2.491889     5.470525
      34    1     3.597693     6.231386     5.470525
      35    1     1.440614     0.000000     5.470525
      36    1    -0.718386     3.739498     5.470525
      37    1     5.758614     0.000000     5.470525
      38    1     3.599614     3.739498     5.470525
      39    1    -1.438693     2.491889     5.470525
      40    1    -3.597693     6.231386     5.470525
      41    1     2.879307     2.491889     5.470525
      42    1     0.720307     6.231386     5.470525
      43    1     0.720307     1.247609     5.470525
      44    1    -1.438693     4.987106     5.470525
      45    1     5.038307     1.247609     5.470525
      46    1     2.879307     4.987106     5.470525
      47    1     2.877385     0.000000     5.470525
      48    1     0.718386     3.739498     5.470525
      49    1     7.195385     0.000000     5.470525
      50    1     5.036385     3.739498     5.470525
      51    1    -0.720307     1.247609     9.117525
      52    1    -2.879307     4.987106     9.117525
      53    1     3.597693     1.247609     9.117525
      54    1     1.438693     4.987106     9.117525
      55    1     1.438693     2.491889     9.117525
      56    1    -0.720307     6.231386     9.117525
      57    1     5.756693     2.491889     9.117525
      58    1     3.597693     6.231386     9.117525
      59    1     1.440614     0.000000     9.117525
      60    1    -0.718386     3.739498     9.117525
      61    1     5.758614     0.000000     9.117525
      62    1     3.599614     3.739498     9.117525
      63    1    -1.438693     2.491889     9.117525
      64    1    -3.597693     6.231386     9.117525
      65    1     2.879307     2.491889     9.117525
      66    1     0.720307     6.231386     9.117525
      67    1     0.720307     1.247609     9.117525
      68    1    -1.438693     4.987106     9.117525
      69    1     5.038307     1.247609     9.117525
      70    1     2.879307     4.987106     9.117525
      71    1     2.877385     0.000000     9.117525
      72    1     0.718386     3.739498     9.117525
      73    1     7.195385     0.000000     9.117525
      74    1     5.036385     3.739498     9.117525
      75    1    -0.720307     1.247609    12.764525
      76    1    -2.879307     4.987106    12.764525
      77    1     3.597693     1.247609    12.764525
      78    1     1.438693     4.987106    12.764525
      79    1     1.438693     2.491889    12.764525
      80    1    -0.720307     6.231386    12.764525
      81    1     5.756693     2.491889    12.764525
      82    1     3.597693     6.231386    12.764525
      83    1     1.440614     0.000000    12.764525
      84    1    -0.718386     3.739498    12.764525
      85    1     5.758614     0.000000    12.764525
      86    1     3.599614     3.739498    12.764525
      87    1    -1.438693     2.491889    12.764525
      88    1    -3.597693     6.231386    12.764525
      89    1     2.879307     2.491889    12.764525
      90    1     0.720307     6.231386    12.764525
      91    1     0.720307     1.247609    12.764525
      92    1    -1.438693     4.987106    12.764525
      93    1     5.038307     1.247609    12.764525
      94    1     2.879307     4.987106    12.764525
      95    1     2.877385     0.000000    12.764525
      96    1     0.718386     3.739498    12.764525
      97    1     7.195385     0.000000    12.764525
      98    1     5.036385     3.739498    12.764525
Feature   Structure_3    Generation
END_CFG

BEGIN_CFG
Size
  98
Supercell
  8.636000 0.000000 0.000000
  -4.318000 7.478995 0.000000
  0.000000 0.000000 14.588200
AtomData:  id type       cartes_x      cartes_y      cartes_z
       1    0     4.318000     0.000000     0.000000
       2    0     0.000000     0.000000     3.647502
       3    1    -0.720307     1.247609     1.823525
       4    1    -2.879307     4.987106     1.823525
       5    1     3.597693     1.247609     1.823525
       6    1     1.438693     4.987106     1.823525
       7    1     1.438693     2.491889     1.823525
       8    1    -0.720307     6.231386     1.823525
       9    1     5.756693     2.491889     1.823525
      10    1     3.597693     6.231386     1.823525
      11    1     1.440614     0.000000     1.823525
      12    1    -0.718386     3.739498     1.823525
      13    1     5.758614     0.000000     1.823525
      14    1     3.599614     3.739498     1.823525
      15    1    -1.438693     2.491889     1.823525
      16    1    -3.597693     6.231386     1.823525
      17    1     2.879307     2.491889     1.823525
      18    1     0.720307     6.231386     1.823525
      19    1     0.720307     1.247609     1.823525
      20    1    -1.438693     4.987106     1.823525
      21    1     5.038307     1.247609     1.823525
      22    1     2.879307     4.987106     1.823525
      23    1     2.877385     0.000000     1.823525
      24    1     0.718386     3.739498     1.823525
      25    1     7.195385     0.000000     1.823525
      26    1     5.036385     3.739498     1.823525
      27    1    -0.720307     1.247609     5.470525
      28    1    -2.879307     4.987106     5.470525
      29    1     3.597693     1.247609     5.470525
      30    1     1.438693     4.987106     5.470525
      31    1     1.438693     2.491889     5.470525
      32    1    -0.720307     6.231386     5.470525
      33    1     5.756693     2.491889     5.470525
      34    1     3.597693     6.231386     5.470525
      35    1     1.440614     0.000000     5.470525
      36    1    -0.718386     3.739498     5.470525
      37    1     5.758614     0.000000     5.470525
      38    1     3.599614     3.739498     5.470525
      39    1    -1.438693     2.491889     5.470525
      40    1    -3.597693     6.231386     5.470525
      41    1     2.879307     2.491889     5.470525
      42    1     0.720307     6.231386     5.470525
      43    1     0.720307     1.247609     5.470525
      44    1    -1.438693     4.987106     5.470525
      45    1     5.038307     1.247609     5.470525
      46    1     2.879307     4.987106     5.470525
      47    1     2.877385     0.000000     5.470525
      48    1     0.718386     3.739498     5.470525
      49    1     7.195385     0.000000     5.470525
      50    1     5.036385     3.739498     5.470525
      51    1    -0.720307     1.247609     9.117525
      52    1    -2.879307     4.987106     9.117525
      53    1     3.597693     1.247609     9.117525
      54    1     1.438693     4.987106     9.117525
      55    1     1.438693     2.491889     9.117525
      56    1    -0.720307     6.231386     9.117525
      57    1     5.756693     2.491889     9.117525
      58    1     3.597693     6.231386     9.117525
      59    1     1.440614     0.000000     9.117525
      60    1    -0.718386     3.739498     9.117525
      61    1     5.758614     0.000000     9.117525
      62    1     3.599614     3.739498     9.117525
      63    1    -1.438693     2.491889     9.117525
      64    1    -3.597693     6.231386     9.117525
      65    1     2.879307     2.491889     9.117525
      66    1     0.720307     6.231386     9.117525
      67    1     0.720307     1.247609     9.117525
      68    1    -1.438693     4.987106     9.117525
      69    1     5.038307     1.247609     9.117525
      70    1     2.879307     4.987106     9.117525
      71    1     2.877385     0.000000     9.117525
      72    1     0.718386     3.739498     9.117525
      73    1     7.195385     0.000000     9.117525
      74    1     5.036385     3.739498     9.117525
      75    1    -0.720307     1.247609    12.764525
      76    1    -2.879307     4.987106    12.764525
      77    1     3.597693     1.247609    12.764525
      78    1     1.438693     4.987106    12.764525
      79    1     1.438693     2.491889    12.764525
      80    1    -0.720307     6.231386    12.764525
      81    1     5.756693     2.491889    12.764525
      82    1     3.597693     6.231386    12.764525
      83    1     1.440614     0.000000    12.764525
      84    1    -0.718386     3.739498    12.764525
      85    1     5.758614     0.000000    12.764525
      86    1     3.599614     3.739498    12.764525
      87    1    -1.438693     2.491889    12.764525
      88    1    -3.597693     6.231386    12.764525
      89    1     2.879307     2.491889    12.764525
      90    1     0.720307     6.231386    12.764525
      91    1     0.720307     1.247609    12.764525
      92    1    -1.438693     4.987106    12.764525
      93    1     5.038307     1.247609    12.764525
      94    1     2.879307     4.987106    12.764525
      95    1     2.877385     0.000000    12.764525
      96    1     0.718386     3.739498    12.764525
      97    1     7.195385     0.000000    12.764525
      98    1     5.036385     3.739498    12.764525
Feature   Structure_4    Generation
END_CFG

BEGIN_CFG
Size
  98
Supercell
  8.636000 0.000000 0.000000
  -4.318000 7.478995 0.000000
  0.000000 0.000000 14.588200
AtomData:  id type       cartes_x      cartes_y      cartes_z
       1    0     0.000000     0.000000     3.647502
       2    0     0.000000     0.000000     7.294494
       3    1    -0.720307     1.247609     1.823525
       4    1    -2.879307     4.987106     1.823525
       5    1     3.597693     1.247609     1.823525
       6    1     1.438693     4.987106     1.823525
       7    1     1.438693     2.491889     1.823525
       8    1    -0.720307     6.231386     1.823525
       9    1     5.756693     2.491889     1.823525
      10    1     3.597693     6.231386     1.823525
      11    1     1.440614     0.000000     1.823525
      12    1    -0.718386     3.739498     1.823525
      13    1     5.758614     0.000000     1.823525
      14    1     3.599614     3.739498     1.823525
      15    1    -1.438693     2.491889     1.823525
      16    1    -3.597693     6.231386     1.823525
      17    1     2.879307     2.491889     1.823525
      18    1     0.720307     6.231386     1.823525
      19    1     0.720307     1.247609     1.823525
      20    1    -1.438693     4.987106     1.823525
      21    1     5.038307     1.247609     1.823525
      22    1     2.879307     4.987106     1.823525
      23    1     2.877385     0.000000     1.823525
      24    1     0.718386     3.739498     1.823525
      25    1     7.195385     0.000000     1.823525
      26    1     5.036385     3.739498     1.823525
      27    1    -0.720307     1.247609     5.470525
      28    1    -2.879307     4.987106     5.470525
      29    1     3.597693     1.247609     5.470525
      30    1     1.438693     4.987106     5.470525
      31    1     1.438693     2.491889     5.470525
      32    1    -0.720307     6.231386     5.470525
      33    1     5.756693     2.491889     5.470525
      34    1     3.597693     6.231386     5.470525
      35    1     1.440614     0.000000     5.470525
      36    1    -0.718386     3.739498     5.470525
      37    1     5.758614     0.000000     5.470525
      38    1     3.599614     3.739498     5.470525
      39    1    -1.438693     2.491889     5.470525
      40    1    -3.597693     6.231386     5.470525
      41    1     2.879307     2.491889     5.470525
      42    1     0.720307     6.231386     5.470525
      43    1     0.720307     1.247609     5.470525
      44    1    -1.438693     4.987106     5.470525
      45    1     5.038307     1.247609     5.470525
      46    1     2.879307     4.987106     5.470525
      47    1     2.877385     0.000000     5.470525
      48    1     0.718386     3.739498     5.470525
      49    1     7.195385     0.000000     5.470525
      50    1     5.036385     3.739498     5.470525
      51    1    -0.720307     1.247609     9.117525