BEGIN_CFG
 Size
    128
 SuperCell
        12.721996      0.000000      0.000000
         0.000000     12.721996      0.000000
         0.000000      0.000000     12.721996
 AtomData:    id    type    cartes_x  cartes_y  cartes_z    fx  fy  fz charge
         1     0        -0.021061     -0.007551      0.010882       0.388152   -0.022786   -0.042043 0
         2     0         1.608094      1.539597      1.611519      -0.261500    0.802774   -0.313630 0
         3     0         0.032089      0.004106      3.162652      -1.007077   -0.102564    0.549220 0
         4     0         1.596967      1.533163      4.818501      -0.505727    0.711751   -0.608354 0
         5     0        -0.023777     -0.030305      6.389235      -0.113838    0.690077   -0.316153 0
         6     0         1.533493      1.560828      7.936771       0.844359    0.210590    0.655206 0
         7     0        -0.035411     -0.011377      9.586895       0.497932    0.114687   -0.423959 0
         8     0         1.550432      1.613030     11.147981       0.610671   -0.760699   -0.069247 0
         9     0        -0.007845      3.191491      0.009402       0.524246   -0.259578    0.157428 0
        10     0         1.575003      4.759399      1.617109       0.113316   -0.219433   -0.408012 0
        11     0        -0.010679      3.198020      3.182187       0.282219   -0.513256    0.321610 0
        12     0         1.618449      4.718327      4.770494      -0.977654    0.524877    0.506148 0
        13     0        -0.035701      3.188291      6.399136       0.389883   -0.323755   -0.643198 0
        14     0         1.588224      4.745501      7.966791       0.279341    0.067711   -0.274350 0
        15     0        -0.010804      3.172057      9.540708       0.290842    0.237085    0.267665 0
        16     0         1.619001      4.738820     11.136870      -0.177970    0.438702   -0.090866 0
        17     0         0.023391      6.352095     -0.004840      -0.064142    0.015000    0.286807 0
        18     0         1.587124      7.902139      1.610624       0.051081    0.555910   -0.238294 0
        19     0        -0.025460      6.360234      3.234453       0.344707   -0.130415   -0.619681 0
        20     0         1.539504      7.947038      4.773428       0.576671   -0.172710    0.563786 0
        21     0        -0.024070      6.370539      6.394768       0.624549    0.042210   -0.484975 0
        22     0         1.665645      7.949879      7.954665      -0.941752    0.005952   -0.168765 0
        23     0         0.064294      6.377086      9.499751      -0.336986   -0.454062    0.918999 0
        24     0         1.628317      7.923804     11.147676       0.183882    0.007356   -0.430652 0
        25     0         0.032039      9.519719     -0.046917      -0.301776   -0.002696    0.969742 0
        26     0         1.554402     11.147324      1.613035       0.590999   -0.925486   -0.500354 0
        27     0        -0.028401      9.512299      3.214315       0.399256    0.875994   -0.632709 0
        28     0         1.559570     11.142339      4.760366       0.224267   -0.565723    0.508641 0
        29     0        -0.003498      9.569503      6.383336      -0.046299   -0.291975   -0.165623 0
        30     0         1.561336     11.126628      7.995819       0.598383    0.134289   -0.434805 0
        31     0         0.036232      9.532099      9.530234      -0.144452    0.024826    0.256140 0
        32     0         1.598826     11.078735     11.136178       0.071744    0.786450    0.082203 0
        33     0         3.201638     -0.006171     -0.002592      -0.515907   -0.176949    0.064066 0
        34     0         4.789808      1.566960      1.568384      -0.507429   -0.112730    0.292866 0
        35     0         3.155189     -0.058609      3.192089       0.635098    0.608379   -0.116955 0
        36     0         4.765823      1.592548      4.769819      -0.149069   -0.542163   -0.175014 0
        37     0         3.169785     -0.017964      6.371986       0.025497    0.211050    0.346482 0
        38     0         4.790927      1.612994      7.972741      -0.660476   -0.408576   -0.518663 0
        39     0         3.213688     -0.006661      9.597293      -0.649350    0.050050   -0.838126 0
        40     0         4.760785      1.623388     11.111257       0.093746   -0.850328    0.282154 0
        41     0         3.210456      3.130779     -0.019890      -0.881552    0.594805    0.560184 0
        42     0         4.724158      4.720820      1.588651       0.552262    0.641579    0.114894 0
        43     0         3.156673      3.168954      3.206345       0.261792   -0.702763   -0.531671 0
        44     0         4.754236      4.702471      4.796289       0.030103    1.215908   -0.659353 0
        45     0         3.170973      3.158603      6.339102      -0.110157   -0.229524    0.874652 0
        46     0         4.816754      4.774377      7.917868      -0.570319    0.021070    0.449889 0
        47     0         3.193646      3.178327      9.569094      -0.427633   -0.020025   -0.797695 0
        48     0         4.776345      4.769436     11.118345       0.279475    0.037332   -0.014442 0
        49     0         3.208982      6.337120     -0.001623      -0.407519   -0.057459   -0.040929 0
        50     0         4.734767      7.952697      1.570057       0.211364   -0.563344    0.664352 0
        51     0         3.126128      6.312538      3.203729       0.735521    0.418238   -0.156585 0
        52     0         4.726979      7.955193      4.813077       0.266130   -0.350722   -0.681240 0
        53     0         3.158774      6.320718      6.368681       0.364444    0.415558   -0.211455 0
        54     0         4.797970      7.956578      7.951099      -0.016984    0.031494   -0.137437 0
        55     0         3.231059      6.354381      9.485093      -0.094847   -0.123070    0.906082 0
        56     0         4.860910      7.915175     11.139391      -1.295452    0.442827   -0.432675 0
        57     0         3.202504      9.523447     -0.016765      -0.530208   -0.110383    0.285730 0
        58     0         4.755686     11.107049      1.543729      -0.034160    0.180248    0.879448 0
        59     0         3.163152      9.489159      3.208604      -0.165271    0.636439   -0.416790 0
        60     0         4.749698     11.132682      4.824537      -0.139980    0.006788   -1.326223 0
        61     0         3.176878      9.537608      6.367981      -0.189781    0.083872    0.083682 0
        62     0         4.804398     11.147761      7.909892      -0.812267   -0.015443    1.232493 0
        63     0         3.201251      9.539678      9.530361       0.401933   -0.051266    0.269505 0
        64     0         4.784782     11.120676     11.161151       0.144521    0.005744   -0.884905 0
        65     0         6.376651     -0.012685     -0.039312      -0.003776    0.035323    0.466945 0
        66     0         7.960398      1.612444      1.592412      -0.154588   -0.113617   -0.692954 0
        67     0         6.338629     -0.006218      3.138148       0.056593    0.050168    0.228620 0
        68     0         7.920463      1.642427      4.732339       0.398487   -0.517464    0.230934 0
        69     0         6.360054     -0.005055      6.363212      -0.086537    0.932308   -0.355055 0
        70     0         7.949474      1.652888      7.922245       0.012034   -0.431216    0.205266 0
        71     0         6.358821      0.050700      9.545397       0.126226   -0.840696   -0.112399 0
        72     0         7.926430      1.584020     11.110769       0.684633    0.496631    0.364555 0
        73     0         6.309751      3.142715     -0.021324       1.329569    0.851251    0.193035 0
        74     0         7.946541      4.795569      1.643501      -0.219029   -0.323357   -1.073132 0
        75     0         6.347521      3.175841      3.151941      -0.091122   -0.003205    0.125627 0
        76     0         7.897761      4.774620      4.739330       0.909886    0.398559    0.441513 0
        77     0         6.335489      3.206915      6.323436       0.587573   -0.380558    0.446175 0
        78     0         7.974694      4.832324      7.907864      -0.013905   -0.610063    0.424895 0
        79     0         6.335626      3.156933      9.516535       0.917420    1.097345    0.143055 0
        80     0         7.984191      4.812046     11.120342      -0.237381   -0.922171    0.212825 0
        81     0         6.359292      6.375381      0.010321       0.220361   -0.829134    0.020225 0
        82     0         7.924275      7.945919      1.607402       0.271200   -0.091842   -0.332515 0
        83     0         6.325900      6.354906      3.180180      -0.294140    0.086692    0.120949 0
        84     0         7.899782      8.000142      4.775222       0.542256   -0.277114   -0.146488 0
        85     0         6.377697      6.382238      6.337916      -0.320840    0.015150    0.206412 0
        86     0         7.968136      7.964772      7.947846       0.230722    0.398349   -0.322887 0
        87     0         6.412755      6.387734      9.537486      -0.321782   -0.781354   -0.292885 0
        88     0         7.969058      7.888234     11.103622       0.525329    1.212368    0.682469 0
        89     0         6.328305      9.502070      0.014078       0.997602    0.395371   -0.584361 0
        90     0         7.960136     11.095547      1.548005      -0.464800    0.516645    0.263758 0
        91     0         6.318904      9.533116      3.139320      -0.013834    0.192704    0.606329 0
        92     0         7.876763     11.176602      4.708836       1.050417   -0.258569    0.496273 0
        93     0         6.337311      9.613527      6.353602       0.498489   -1.077842   -0.047482 0
        94     0         7.899730     11.189935      7.947601       1.042270   -0.525164   -0.035135 0
        95     0         6.410912      9.519300      9.516335      -0.361382    0.621433    0.472614 0
        96     0         7.984728     11.140443     11.138665      -0.316899   -0.599014   -0.324612 0
        97     0         9.559452     -0.026888      0.003571      -0.279793    0.513359   -0.364946 0
        98     0        11.118800      1.610172      1.615350       0.582686   -0.196667   -0.583794 0
        99     0         9.535411      0.042584      3.093182      -0.169000   -0.581064    1.356496 0
       100     0        11.093794      1.603751      4.735323       0.516083    0.057764    0.609213 0
       101     0         9.522388      0.061901      6.354888      -0.127266   -0.483863   -0.344554 0
       102     0        11.106363      1.627270      7.984216       0.164568   -0.581138   -0.535464 0
       103     0         9.531496     -0.009897      9.537610      -0.042925    0.434088    0.166475 0
       104     0        11.143153      1.586881     11.149476      -0.495244   -0.020380   -0.024632 0
       105     0         9.615585      3.216915      0.023821      -1.451745   -0.572212   -0.506674 0
       106     0        11.134574      4.776729      1.613050       0.249104    0.380486   -0.013746 0
       107     0         9.569730      3.228402      3.144622      -0.714925   -0.341113    0.839050 0
       108     0        11.135438      4.812835      4.797719      -0.165148   -0.367195   -0.178854 0
       109     0         9.546938      3.213489      6.361837      -0.354541    0.088373   -0.455941 0
       110     0        11.141638      4.793789      7.959238       0.036845   -0.054916    0.022306 0
       111     0         9.576835      3.188359      9.517251      -0.754809    0.327256    0.612520 0
       112     0        11.155688      4.769388     11.165796       0.077327    0.204180   -0.594392 0
       113     0         9.554359      6.327594      0.047710       0.063809    0.771450   -0.505927 0
       114     0        11.161552      7.973806      1.646635      -0.447761   -0.576894   -1.077354 0
       115     0         9.531629      6.392034      3.209127      -0.120853   -0.100059   -0.089100 0
       116     0        11.131209      8.001334      4.727603      -0.457604   -0.326386    1.298568 0
       117     0         9.584599      6.423057      6.351382      -0.740986   -0.380300   -0.051630 0
       118     0        11.157008      7.959769      7.989822       0.124374    0.346360   -1.019517 0
       119     0         9.608720      6.387549      9.529440      -0.609649   -0.519472    0.267528 0
       120     0        11.177320      7.927139     11.104438      -0.232479    0.159428    0.665862 0
       121     0         9.562804      9.513436      0.018992      -0.221440   -0.166909   -0.595278 0
       122     0        11.124243     11.121723      1.586488       0.225081    0.018640   -0.001656 0
       123     0         9.498349      9.543966      3.143926       0.315407    0.408878    0.741431 0
       124     0        11.103717     11.167081      4.780800      -0.156828   -0.173027   -0.312715 0
       125     0         9.547637      9.566236      6.364685      -0.419260    0.294731   -0.275211 0
       126     0        11.107012     11.167453      7.969087       0.107419   -0.349473   -0.219039 0
       127     0         9.605106      9.542632      9.516825      -0.961768    0.047722    0.506877 0
       128     0        11.132525     11.098371     11.134796       0.109415    0.232696    0.087283 0
 Energy
      -1430.774140139722
END_CFG

BEGIN_CFG
 Size
    128
 SuperCell
        12.721996      0.000000      0.000000
         0.000000     12.721996      0.000000
         0.000000      0.000000     12.721996
 AtomData:        id    cartes_x  cartes_y  cartes_z    fx  fy  fz charge
         1            -0.021061     -0.007551      0.010882       0.388152   -0.022786   -0.042043 0
         2             1.608094      1.539597      1.611519      -0.261500    0.802774   -0.313630 0
         3             0.032089      0.004106      3.162652      -1.007077   -0.102564    0.549220 0
         4             1.596967      1.533163      4.818501      -0.505727    0.711751   -0.608354 0
         5            -0.023777     -0.030305      6.389235      -0.113838    0.690077   -0.316153 0
         6             1.533493      1.560828      7.936771       0.844359    0.210590    0.655206 0
         7            -0.035411     -0.011377      9.586895       0.497932    0.114687   -0.423959 0
         8             1.550432      1.613030     11.147981       0.610671   -0.760699   -0.069247 0
         9            -0.007845      3.191491      0.009402       0.524246   -0.259578    0.157428 0
        10             1.575003      4.759399      1.617109       0.113316   -0.219433   -0.408012 0
        11            -0.010679      3.198020      3.182187       0.282219   -0.513256    0.321610 0
        12             1.618449      4.718327      4.770494      -0.977654    0.524877    0.506148 0
        13            -0.035701      3.188291      6.399136       0.389883   -0.323755   -0.643198 0
        14             1.588224      4.745501      7.966791       0.279341    0.067711   -0.274350 0
        15            -0.010804      3.172057      9.540708       0.290842    0.237085    0.267665 0
        16             1.619001      4.738820     11.136870      -0.177970    0.438702   -0.090866 0
        17             0.023391      6.352095     -0.004840      -0.064142    0.015000    0.286807 0
        18             1.587124      7.902139      1.610624       0.051081    0.555910   -0.238294 0
        19            -0.025460      6.360234      3.234453       0.344707   -0.130415   -0.619681 0
        20             1.539504      7.947038      4.773428       0.576671   -0.172710    0.563786 0
        21            -0.024070      6.370539      6.394768       0.624549    0.042210   -0.484975 0
        22             1.665645      7.949879      7.954665      -0.941752    0.005952   -0.168765 0
        23             0.064294      6.377086      9.499751      -0.336986   -0.454062    0.918999 0
        24             1.628317      7.923804     11.147676       0.183882    0.007356   -0.430652 0
        25             0.032039      9.519719     -0.046917      -0.301776   -0.002696    0.969742 0
        26             1.554402     11.147324      1.613035       0.590999   -0.925486   -0.500354 0
        27            -0.028401      9.512299      3.214315       0.399256    0.875994   -0.632709 0
        28             1.559570     11.142339      4.760366       0.224267   -0.565723    0.508641 0
        29            -0.003498      9.569503      6.383336      -0.046299   -0.291975   -0.165623 0
        30             1.561336     11.126628      7.995819       0.598383    0.134289   -0.434805 0
        31             0.036232      9.532099      9.530234      -0.144452    0.024826    0.256140 0
        32             1.598826     11.078735     11.136178       0.071744    0.786450    0.082203 0
        33             3.201638     -0.006171     -0.002592      -0.515907   -0.176949    0.064066 0
        34             4.789808      1.566960      1.568384      -0.507429   -0.112730    0.292866 0
        35             3.155189     -0.058609      3.192089       0.635098    0.608379   -0.116955 0
        36             4.765823      1.592548      4.769819      -0.149069   -0.542163   -0.175014 0
        37             3.169785     -0.017964      6.371986       0.025497    0.211050    0.346482 0
        38             4.790927      1.612994      7.972741      -0.660476   -0.408576   -0.518663 0
        39             3.213688     -0.006661      9.597293      -0.649350    0.050050   -0.838126 0
        40             4.760785      1.623388     11.111257       0.093746   -0.850328    0.282154 0
        41             3.210456      3.130779     -0.019890      -0.881552    0.594805    0.560184 0
        42             4.724158      4.720820      1.588651       0.552262    0.641579    0.114894 0
        43             3.156673      3.168954      3.206345       0.261792   -0.702763   -0.531671 0
        44             4.754236      4.702471      4.796289       0.030103    1.215908   -0.659353 0
        45             3.170973      3.158603      6.339102      -0.110157   -0.229524    0.874652 0
        46             4.816754      4.774377      7.917868      -0.570319    0.021070    0.449889 0
        47             3.193646      3.178327      9.569094      -0.427633   -0.020025   -0.797695 0
        48             4.776345      4.769436     11.118345       0.279475    0.037332   -0.014442 0
        49             3.208982      6.337120     -0.001623      -0.407519   -0.057459   -0.040929 0
        50             4.734767      7.952697      1.570057       0.211364   -0.563344    0.664352 0
        51             3.126128      6.312538      3.203729       0.735521    0.418238   -0.156585 0
        52             4.726979      7.955193      4.813077       0.266130   -0.350722   -0.681240 0
        53             3.158774      6.320718      6.368681       0.364444    0.415558   -0.211455 0
        54             4.797970      7.956578      7.951099      -0.016984    0.031494   -0.137437 0
        55             3.231059      6.354381      9.485093      -0.094847   -0.123070    0.906082 0
        56             4.860910      7.915175     11.139391      -1.295452    0.442827   -0.432675 0
        57             3.202504      9.523447     -0.016765      -0.530208   -0.110383    0.285730 0
        58             4.755686     11.107049      1.543729      -0.034160    0.180248    0.879448 0
        59             3.163152      9.489159      3.208604      -0.165271    0.636439   -0.416790 0
        60             4.749698     11.132682      4.824537      -0.139980    0.006788   -1.326223 0
        61             3.176878      9.537608      6.367981      -0.189781    0.083872    0.083682 0
        62             4.804398     11.147761      7.909892      -0.812267   -0.015443    1.232493 0
        63             3.201251      9.539678      9.530361       0.401933   -0.051266    0.269505 0
        64             4.784782     11.120676     11.161151       0.144521    0.005744   -0.884905 0
        65             6.376651     -0.012685     -0.039312      -0.003776    0.035323    0.466945 0
        66             7.960398      1.612444      1.592412      -0.154588   -0.113617   -0.692954 0
        67             6.338629     -0.006218      3.138148       0.056593    0.050168    0.228620 0
        68             7.920463      1.642427      4.732339       0.398487   -0.517464    0.230934 0
        69             6.360054     -0.005055      6.363212      -0.086537    0.932308   -0.355055 0
        70             7.949474      1.652888      7.922245       0.012034   -0.431216    0.205266 0
        71             6.358821      0.050700      9.545397       0.126226   -0.840696   -0.112399 0
        72             7.926430      1.584020     11.110769       0.684633    0.496631    0.364555 0
        73             6.309751      3.142715     -0.021324       1.329569    0.851251    0.193035 0
        74             7.946541      4.795569      1.643501      -0.219029   -0.323357   -1.073132 0
        75             6.347521      3.175841      3.151941      -0.091122   -0.003205    0.125627 0
        76             7.897761      4.774620      4.739330       0.909886    0.398559    0.441513 0
        77             6.335489      3.206915      6.323436       0.587573   -0.380558    0.446175 0
        78             7.974694      4.832324      7.907864      -0.013905   -0.610063    0.424895 0
        79             6.335626      3.156933      9.516535       0.917420    1.097345    0.143055 0
        80             7.984191      4.812046     11.120342      -0.237381   -0.922171    0.212825 0
        81             6.359292      6.375381      0.010321       0.220361   -0.829134    0.020225 0
        82             7.924275      7.945919      1.607402       0.271200   -0.091842   -0.332515 0
        83             6.325900      6.354906      3.180180      -0.294140    0.086692    0.120949 0
        84             7.899782      8.000142      4.775222       0.542256   -0.277114   -0.146488 0
        85             6.377697      6.382238      6.337916      -0.320840    0.015150    0.206412 0
        86             7.968136      7.964772      7.947846       0.230722    0.398349   -0.322887 0
        87             6.412755      6.387734      9.537486      -0.321782   -0.781354   -0.292885 0
        88             7.969058      7.888234     11.103622       0.525329    1.212368    0.682469 0
        89             6.328305      9.502070      0.014078       0.997602    0.395371   -0.584361 0
        90             7.960136     11.095547      1.548005      -0.464800    0.516645    0.263758 0
        91             6.318904      9.533116      3.139320      -0.013834    0.192704    0.606329 0
        92             7.876763     11.176602      4.708836       1.050417   -0.258569    0.496273 0
        93             6.337311      9.613527      6.353602       0.498489   -1.077842   -0.047482 0
        94             7.899730     11.189935      7.947601       1.042270   -0.525164   -0.035135 0
        95             6.410912      9.519300      9.516335      -0.361382    0.621433    0.472614 0
        96             7.984728     11.140443     11.138665      -0.316899   -0.599014   -0.324612 0
        97             9.559452     -0.026888      0.003571      -0.279793    0.513359   -0.364946 0
        98            11.118800      1.610172      1.615350       0.582686   -0.196667   -0.583794 0
        99             9.535411      0.042584      3.093182      -0.169000   -0.581064    1.356496 0
       100            11.093794      1.603751      4.735323       0.516083    0.057764    0.609213 0
       101             9.522388      0.061901      6.354888      -0.127266   -0.483863   -0.344554 0
       102            11.106363      1.627270      7.984216       0.164568   -0.581138   -0.535464 0
       103             9.531496     -0.009897      9.537610      -0.042925    0.434088    0.166475 0
       104            11.143153      1.586881     11.149476      -0.495244   -0.020380   -0.024632 0
       105             9.615585      3.216915      0.023821      -1.451745   -0.572212   -0.506674 0
       106            11.134574      4.776729      1.613050       0.249104    0.380486   -0.013746 0
       107             9.569730      3.228402      3.144622      -0.714925   -0.341113    0.839050 0
       108            11.135438      4.812835      4.797719      -0.165148   -0.367195   -0.178854 0
       109             9.546938      3.213489      6.361837      -0.354541    0.088373   -0.455941 0
       110            11.141638      4.793789      7.959238       0.036845   -0.054916    0.022306 0
       111             9.576835      3.188359      9.517251      -0.754809    0.327256    0.612520 0
       112            11.155688      4.769388     11.165796       0.077327    0.204180   -0.594392 0
       113             9.554359      6.327594      0.047710       0.063809    0.771450   -0.505927 0
       114            11.161552      7.973806      1.646635      -0.447761   -0.576894   -1.077354 0
       115             9.531629      6.392034      3.209127      -0.120853   -0.100059   -0.089100 0
       116            11.131209      8.001334      4.727603      -0.457604   -0.326386    1.298568 0
       117             9.584599      6.423057      6.351382      -0.740986   -0.380300   -0.051630 0
       118            11.157008      7.959769      7.989822       0.124374    0.346360   -1.019517 0
       119             9.608720      6.387549      9.529440      -0.609649   -0.519472    0.267528 0
       120            11.177320      7.927139     11.104438      -0.232479    0.159428    0.665862 0
       121             9.562804      9.513436      0.018992      -0.221440   -0.166909   -0.595278 0
       122            11.124243     11.121723      1.586488       0.225081    0.018640   -0.001656 0
       123             9.498349      9.543966      3.143926       0.315407    0.408878    0.741431 0
       124            11.103717     11.167081      4.780800      -0.156828   -0.173027   -0.312715 0
       125             9.547637      9.566236      6.364685      -0.419260    0.294731   -0.275211 0
       126            11.107012     11.167453      7.969087       0.107419   -0.349473   -0.219039 0
       127             9.605106      9.542632      9.516825      -0.961768    0.047722    0.506877 0
       128            11.132525     11.098371     11.134796       0.109415    0.232696    0.087283 0
 Energy                                                                                            
      -1430.774140139722                                                                           
END_CFG                                                                                            
