 vasp.5.4.1 24Jun15 (build Jun 17 2016 15:57:28) complex                        
  
 executed on           IFC91_ompi date 2017.06.23  10:57:57
 running on   16 total cores
 distrk:  each k-point on   16 cores,    1 groups
 distr:  one band on NCORES_PER_BAND=  16 cores,    1 groups


--------------------------------------------------------------------------------------------------------


 INCAR:
 POTCAR:    PAW_PBE Pd 04Jan2005                  
 POTCAR:    PAW_PBE Ag 02Apr2005                  

 ----------------------------------------------------------------------------- 
|                                                                             |
|           W    W    AA    RRRRR   N    N  II  N    N   GGGG   !!!           |
|           W    W   A  A   R    R  NN   N  II  NN   N  G    G  !!!           |
|           W    W  A    A  R    R  N N  N  II  N N  N  G       !!!           |
|           W WW W  AAAAAA  RRRRR   N  N N  II  N  N N  G  GGG   !            |
|           WW  WW  A    A  R   R   N   NN  II  N   NN  G    G                |
|           W    W  A    A  R    R  N    N  II  N    N   GGGG   !!!           |
|                                                                             |
|      For optimal performance we recommend to set                            |
|        NCORE= 4 - approx SQRT( number of cores)                             |
|      NCORE specifies how many cores store one orbital (NPAR=cpu/NCORE).     |
|      This setting can  greatly improve the performance of VASP for DFT.     |
|      The default, NPAR=number of cores might be grossly inefficient         |
|      on modern multi-core architectures or massively parallel machines.     |
|      Do your own testing !!!!                                               |
|      Unfortunately you need to use the default for GW and RPA calculations. |
|      (for HF NCORE is supported but not extensively tested yet)             |
|                                                                             |
 ----------------------------------------------------------------------------- 

 POTCAR:    PAW_PBE Pd 04Jan2005                  
   VRHFIN =Pd : s1 d9                                                           
   LEXCH  = PE                                                                  
   EATOM  =   809.7530 eV,   59.5152 Ry                                         
                                                                                
   TITEL  = PAW_PBE Pd 04Jan2005                                                
   LULTRA =        F    use ultrasoft PP ?                                      
   IUNSCR =        1    unscreen: 0-lin 1-nonlin 2-no                           
   RPACOR =    2.000    partial core radius                                     
   POMASS =  106.420; ZVAL   =   10.000    mass and valenz                      
   RCORE  =    2.600    outmost cutoff radius                                   
   RWIGS  =    2.710; RWIGS  =    1.434    wigner-seitz radius (au A)           
   ENMAX  =  250.925; ENMIN  =  188.194 eV                                      
   ICORE  =        3    local potential                                         
   LCOR   =        T    correct aug charges                                     
   LPAW   =        T    paw PP                                                  
   EAUG   =  416.230                                                            
   DEXC   =    0.000                                                            
   RMAX   =    2.653    core radius for proj-oper                               
   RAUG   =    1.300    factor for augmentation sphere                          
   RDEP   =    2.734    radius for radial grids                                 
   RDEPT  =    2.103    core radius for aug-charge                              
                                                                                
   Atomic configuration                                                         
   12 entries                                                                   
     n  l   j            E        occ.                                          
     1  0  0.50    -24164.6631   2.0000                                         
     2  0  0.50     -3530.9218   2.0000                                         
     2  1  1.50     -3165.6822   6.0000                                         
     3  0  0.50      -639.4577   2.0000                                         
     3  1  1.50      -519.4532   6.0000                                         
     3  2  2.50      -328.9757  10.0000                                         
     4  0  0.50       -88.7014   2.0000                                         
     4  1  1.50       -54.4540   6.0000                                         
     4  2  2.50        -6.6878   9.0000                                         
     5  0  0.50        -4.3543   1.0000                                         
     5  1  0.50        -1.3606   0.0000                                         
     4  3  2.50        -1.3606   0.0000                                         
   Description                                                                  
     l       E           TYP  RCUT    TYP  RCUT                                 
     2     -6.6878251     23  2.400                                             
     2     -8.0484077     23  2.400                                             
     0     -4.3542939     23  2.400                                             
     0      4.3406793     23  2.400                                             
     1     -4.0817478     23  2.600                                             
     1     15.8380318     23  2.600                                             
     3     -4.0817478     23  2.400                                             
  local pseudopotential read in
  partial core-charges read in
  partial kinetic energy density read in
  atomic valenz-charges read in
  non local Contribution for L=           2  read in
    real space projection operators read in
  non local Contribution for L=           2  read in
    real space projection operators read in
  non local Contribution for L=           0  read in
    real space projection operators read in
  non local Contribution for L=           0  read in
    real space projection operators read in
  non local Contribution for L=           1  read in
    real space projection operators read in
  non local Contribution for L=           1  read in
    real space projection operators read in
    PAW grid and wavefunctions read in
 
   number of l-projection  operators is LMAX  =           6
   number of lm-projection operators is LMMAX =          18
 
 POTCAR:    PAW_PBE Ag 02Apr2005                  
   VRHFIN =Ag : s1 d10                                                          
   LEXCH  = PE                                                                  
   EATOM  =  1037.2675 eV,   76.2370 Ry                                         
                                                                                
   TITEL  = PAW_PBE Ag 02Apr2005                                                
   LULTRA =        F    use ultrasoft PP ?                                      
   IUNSCR =        1    unscreen: 0-lin 1-nonlin 2-no                           
   RPACOR =    2.000    partial core radius                                     
   POMASS =  107.868; ZVAL   =   11.000    mass and valenz                      
   RCORE  =    2.500    outmost cutoff radius                                   
   RWIGS  =    2.840; RWIGS  =    1.503    wigner-seitz radius (au A)           
   ENMAX  =  249.844; ENMIN  =  187.383 eV                                      
   ICORE  =        3    local potential                                         
   LCOR   =        T    correct aug charges                                     
   LPAW   =        T    paw PP                                                  
   EAUG   =  412.496                                                            
   DEXC   =    0.000                                                            
   RMAX   =    2.560    core radius for proj-oper                               
   RAUG   =    1.300    factor for augmentation sphere                          
   RDEP   =    2.576    radius for radial grids                                 
   RDEPT  =    2.072    core radius for aug-charge                              
                                                                                
   Atomic configuration                                                         
   12 entries                                                                   
     n  l   j            E        occ.                                          
     1  0  0.50    -25324.9161   2.0000                                         
     2  0  0.50     -3728.5341   2.0000                                         
     2  1  1.50     -3344.0404   6.0000                                         
     3  0  0.50      -683.5581   2.0000                                         
     3  1  1.50      -557.3225   6.0000                                         
     3  2  2.50      -358.3853  10.0000                                         
     4  0  0.50       -95.0341   2.0000                                         
     4  1  1.50       -58.5511   6.0000                                         
     4  2  2.50        -7.4440  10.0000                                         
     5  0  0.50        -4.4045   1.0000                                         
     5  1  0.50        -1.3606   0.0000                                         
     4  3  2.50        -1.3606   0.0000                                         
   Description                                                                  
     l       E           TYP  RCUT    TYP  RCUT                                 
     2     -7.4439781     23  2.400                                             
     2     -8.8045607     23  2.400                                             
     0     -4.4044681     23  2.400                                             
     0      1.9520038     23  2.400                                             
     1     -1.3605826     23  2.500                                             
     1     27.2116520     23  2.500                                             
     3     -4.0817478     23  2.400                                             
  local pseudopotential read in
  partial core-charges read in
  partial kinetic energy density read in
  atomic valenz-charges read in
  non local Contribution for L=           2  read in
    real space projection operators read in
  non local Contribution for L=           2  read in
    real space projection operators read in
  non local Contribution for L=           0  read in
    real space projection operators read in
  non local Contribution for L=           0  read in
    real space projection operators read in
  non local Contribution for L=           1  read in
    real space projection operators read in
  non local Contribution for L=           1  read in
    real space projection operators read in
    PAW grid and wavefunctions read in
 
   number of l-projection  operators is LMAX  =           6
   number of lm-projection operators is LMMAX =          18
 

 ----------------------------------------------------------------------------- 
|                                                                             |
|  ADVICE TO THIS USER RUNNING 'VASP/VAMP'   (HEAR YOUR MASTER'S VOICE ...):  |
|                                                                             |
|      You have a (more or less) 'large supercell' and for larger cells       |
|      it might be more efficient to use real space projection opertators     |
|      So try LREAL= Auto  in the INCAR   file.                               |
|      Mind: At the moment your POTCAR file does not contain real space       |
|       projectors, and has to be modified,  BUT if you                       |
|      want to do an extremely  accurate calculation you might also keep the  |
|      reciprocal projection scheme          (i.e. LREAL=.FALSE.)             |
|                                                                             |
 ----------------------------------------------------------------------------- 

  PAW_PBE Pd 04Jan2005                  :
 energy of atom  1       EATOM= -809.7530
 kinetic energy error for atom=    0.0091 (will be added to EATOM!!)
  PAW_PBE Ag 02Apr2005                  :
 energy of atom  2       EATOM=-1037.2675
 kinetic energy error for atom=    0.0091 (will be added to EATOM!!)
 
 
 POSCAR: MLIP output to VASP                     
  positions in direct lattice
  velocities in cartesian coordinates
 exchange correlation table for  LEXCH =        8
   RHO(1)=    0.500       N(1)  =     2000
   RHO(2)=  100.500       N(2)  =     4000
 


--------------------------------------------------------------------------------------------------------


 ion  position               nearest neighbor table
   1  0.331  0.714  0.710-  20 2.62   4 2.66   5 2.78  10 2.78  27 2.82  13 2.82   3 2.83   8 2.89
                            28 2.98
   2  0.368  0.693  0.291-   3 2.67  12 2.70  11 2.80  32 2.85  21 2.89  31 2.91  13 3.04   4 3.05
                            22 3.06   5 3.26   7 3.54  10 3.56
   3  0.080  0.772  0.575-   2 2.67  18 2.72   7 2.80   1 2.83  10 2.88  22 2.94  14 2.95   8 2.97
                             4 2.98   9 3.03  26 3.08  15 3.50
   4  0.398  0.437  0.447-   1 2.66  29 2.73  32 2.76  22 2.84  16 2.84  24 2.87   8 2.91   3 2.98
                             2 3.05  17 3.10  27 3.32  13 3.42
   5  0.196  0.695  0.022-  31 2.72  11 2.77   1 2.78   8 2.84   7 2.84  28 2.86  19 3.08   6 3.22
                             2 3.26  20 3.36  27 3.43  17 3.49  22 3.54  12 3.56
   6  0.939  0.509  0.081-  23 2.69  19 2.75  32 2.79  25 2.80   7 2.83   8 2.92  13 2.99  12 3.13
                            22 3.16   5 3.22  30 3.23  17 3.54
   7  0.926  0.775  0.348-  19 2.69  22 2.72  15 2.74  14 2.80   3 2.80   6 2.83   5 2.84  13 2.95
                             9 3.21  29 3.25   2 3.54
   8  0.085  0.565  0.775-  17 2.69  18 2.73  25 2.84   5 2.84   1 2.89   4 2.91   6 2.92  24 2.93
                             3 2.97   9 3.02  19 3.11  12 3.60
   9  0.871  0.563  0.572-  18 2.68  30 2.74  13 2.79  22 2.79  27 2.81  24 2.82   8 3.02   3 3.03
                            25 3.10   7 3.21  15 3.45  20 3.46  12 3.48
  10  0.182  0.033  0.709-  21 2.73   1 2.78  23 2.78  25 2.84  28 2.86   3 2.88  26 3.01  17 3.11
                            14 3.18  24 3.38  20 3.43   2 3.56
  11  0.226  0.971  0.219-  20 2.69  14 2.70  24 2.75   5 2.77   2 2.80  30 2.88  21 3.10  12 3.13
                            16 3.17  28 3.20  23 3.42
  12  0.617  0.666  0.004-   2 2.70  25 2.70  20 2.74  18 2.82  19 2.84  27 3.05  31 3.12  11 3.13
                             6 3.13  32 3.29  21 3.41   9 3.48   5 3.56   8 3.60
  13  0.637  0.669  0.437-  21 2.77   9 2.79  32 2.81   1 2.82   7 2.95   6 2.99  15 2.99   2 3.04
                            30 3.17   4 3.42  27 3.47  20 3.53
  14  0.935  0.080  0.519-  11 2.70  26 2.76  29 2.77   7 2.80  25 2.81   3 2.95  27 3.04  15 3.07
                            24 3.08  30 3.10  10 3.18
  15  0.629  0.987  0.663-  17 2.72   7 2.74  20 2.75  18 2.84  26 2.85  13 2.99  14 3.07  21 3.09
                            29 3.21  23 3.29   9 3.45  31 3.48   3 3.50
  16  0.489  0.143  0.152-   4 2.84  22 2.86  18 2.86  24 2.87  20 3.01  26 3.02  19 3.03  23 3.16
                            11 3.17  31 3.19  29 3.20  21 3.20  32 3.21
  17  0.363  0.277  0.708-   8 2.69  15 2.72  23 2.79  29 2.86  31 2.90  21 2.91  27 3.04  24 3.07
                             4 3.10  10 3.11   5 3.49   6 3.54
  18  0.780  0.842  0.851-  19 2.64  26 2.64   9 2.68  20 2.69   3 2.72   8 2.73  12 2.82  15 2.84
                            16 2.86  28 3.18
  19  0.787  0.849  0.140-  18 2.64   7 2.69  29 2.70  21 2.73   6 2.75  28 2.81  12 2.84  16 3.03
                             5 3.08   8 3.11
  20  0.448  0.886  0.891-   1 2.62  23 2.66  11 2.69  18 2.69  12 2.74  15 2.75  16 3.01   5 3.36
                            10 3.43   9 3.46  28 3.48  27 3.49  13 3.53
  21  0.459  0.968  0.412-  10 2.73  19 2.73  24 2.74  13 2.77   2 2.89  17 2.91  29 2.98  15 3.09
                            11 3.10  16 3.20  12 3.41
  22  0.180  0.461  0.273-   7 2.72  23 2.73  31 2.75   9 2.79   4 2.84  16 2.86  24 2.92   3 2.94
                             2 3.06  30 3.09   6 3.16   5 3.54
  23  0.220  0.211  0.989-  20 2.66   6 2.69  22 2.73  10 2.78  17 2.79  30 2.84  31 3.12  28 3.14
                            16 3.16  15 3.29  11 3.42
  24  0.180  0.259  0.472-  21 2.74  25 2.74  11 2.75   9 2.82   4 2.87  16 2.87  22 2.92   8 2.93
                            30 3.07  17 3.07  14 3.08  10 3.38
  25  0.906  0.354  0.786-  12 2.70  26 2.70  24 2.74   6 2.80  14 2.81   8 2.84  10 2.84  27 2.92
                             9 3.10  32 3.23  31 3.57
  26  0.784  0.133  0.858-  18 2.64  32 2.70  25 2.70  31 2.71  14 2.76  28 2.81  15 2.85  10 3.01
                            16 3.02   3 3.08
  27  0.621  0.438  0.681-  31 2.79   9 2.81  29 2.82   1 2.82  25 2.92  14 3.04  17 3.04  12 3.05
                            30 3.17   4 3.32   5 3.43  13 3.47  20 3.49
  28  0.993  0.005  0.012-  19 2.81  26 2.81  30 2.82  10 2.86   5 2.86   1 2.98  32 3.14  23 3.14
                            18 3.18  11 3.20  29 3.20  20 3.48
  29  0.682  0.156  0.396-  19 2.70   4 2.73  14 2.77  30 2.82  27 2.82  17 2.86  21 2.98  16 3.20
                            28 3.20  15 3.21   7 3.25  32 3.36
  30  0.930  0.286  0.299-   9 2.74  32 2.81  29 2.82  28 2.82  23 2.84  11 2.88  24 3.07  22 3.09
                            14 3.10  13 3.17  27 3.17   6 3.23
  31  0.458  0.403  0.979-  26 2.71   5 2.72  22 2.75  27 2.79  17 2.90   2 2.91  32 3.01  12 3.12
                            23 3.12  16 3.19  15 3.48  25 3.57
  32  0.688  0.383  0.164-  26 2.70   4 2.76   6 2.79  13 2.81  30 2.81   2 2.85  31 3.01  28 3.14
                            16 3.21  25 3.23  12 3.29  29 3.36
 

IMPORTANT INFORMATION: All symmetrisations will be switched off!
NOSYMM: (Re-)initialisation of all symmetry stuff for point group C_1.

 
 
 KPOINTS: K-Points                                

Automatic generation of k-mesh.
Space group operators:
 irot       det(A)        alpha          n_x          n_y          n_z        tau_x        tau_y        tau_z
    1     1.000000     0.000000     1.000000     0.000000     0.000000     0.000000     0.000000     0.000000
 
 Subroutine IBZKPT returns following result:
 ===========================================
 
 Found      1 irreducible k-points:
 
 Following reciprocal coordinates:
            Coordinates               Weight
  0.000000  0.000000  0.000000      1.000000
 
 Following cartesian coordinates:
            Coordinates               Weight
  0.000000  0.000000  0.000000      1.000000
 


--------------------------------------------------------------------------------------------------------




 Dimension of arrays:
   k-points           NKPTS =      1   k-points in BZ     NKDIM =      1   number of bands    NBANDS=    211
   number of dos      NEDOS =    301   number of ions     NIONS =     32
   non local maximal  LDIM  =      6   non local SUM 2l+1 LMDIM =     18
   total plane-waves  NPLWV = 216000
   max r-space proj   IRMAX =      1   max aug-charges    IRDMAX=  18345
   dimension x,y,z NGX =    60 NGY =   60 NGZ =   60
   dimension x,y,z NGXF=   120 NGYF=  120 NGZF=  120
   support grid    NGXF=   120 NGYF=  120 NGZF=  120
   ions per type =               0  32
 NGX,Y,Z   is equivalent  to a cutoff of  11.36, 10.98, 10.97 a.u.
 NGXF,Y,Z  is equivalent  to a cutoff of  22.72, 21.96, 21.94 a.u.


 I would recommend the setting:
   dimension x,y,z NGX =    57 NGY =   59 NGZ =   59
 SYSTEM =  bcc Al                                  
 POSCAR =  MLIP output to VASP                     

 Startparameter for this run:
   NWRITE =      2    write-flag & timer
   PREC   = a         normal or accurate (medium, high low for compatibility)
   ISTART =      0    job   : 0-new  1-cont  2-samecut
   ICHARG =      1    charge: 1-file 2-atom 10-const
   ISPIN  =      1    spin polarized calculation?
   LNONCOLLINEAR =      F non collinear calculations
   LSORBIT =      F    spin-orbit coupling
   INIWAV =      1    electr: 0-lowe 1-rand  2-diag
   LASPH  =      F    aspherical Exc in radial PAW
   METAGGA=      F    non-selfconsistent MetaGGA calc.

 Electronic Relaxation 1
   ENCUT  =  400.0 eV  29.40 Ry    5.42 a.u.  14.32 14.81 14.83*2*pi/ulx,y,z
   ENINI  =  400.0     initial cutoff
   ENAUG  =  416.2 eV  augmentation charge cutoff
   NELM   =     80;   NELMIN=  3; NELMDL=  0     # of ELM steps 
   EDIFF  = 0.1E-03   stopping-criterion for ELM
   LREAL  =      F    real-space projection
   NLSPLINE    = F    spline interpolate recip. space projectors
   LCOMPAT=      F    compatible to vasp.4.4
   GGA_COMPAT  = T    GGA compatible to vasp.4.4-vasp.4.6
   LMAXPAW     = -100 max onsite density
   LMAXMIX     =    2 max onsite mixed and CHGCAR
   VOSKOWN=      0    Vosko Wilk Nusair interpolation
   ROPT   =    0.00000   0.00000
 Ionic relaxation
   EDIFFG = 0.1E-01   stopping-criterion for IOM
   NSW    =   1000    number of steps for IOM
   NBLOCK =      1;   KBLOCK =   1000    inner block; outer block 
   IBRION =      2    ionic relax: 0-MD 1-quasi-New 2-CG
   NFREE  =      1    steps in history (QN), initial steepest desc. (CG)
   ISIF   =      3    stress and relaxation
   IWAVPR =     11    prediction:  0-non 1-charg 2-wave 3-comb
   ISYM   =      0    0-nonsym 1-usesym 2-fastsym
   LCORR  =      T    Harris-Foulkes like correction to forces

   POTIM  = 0.5000    time-step for ionic-motion
   TEIN   =    0.0    initial temperature
   TEBEG  =    0.0;   TEEND  =   0.0 temperature during run
   SMASS  =  -3.00    Nose mass-parameter (am)
   estimated Nose-frequenzy (Omega)   =  0.10E-29 period in steps =****** mass=  -0.176E-26a.u.
   SCALEE = 1.0000    scale energy and forces
   NPACO  =    256;   APACO  = 16.0  distance and # of slots for P.C.
   PSTRESS=    0.0 pullay stress

  Mass of Ions in am
   POMASS = 106.42107.87
  Ionic Valenz
   ZVAL   =  10.00 11.00
  Atomic Wigner-Seitz radii
   RWIGS  =  -1.00 -1.00
  virtual crystal weights 
   VCA    =   1.00  1.00
   NELECT =     352.0000    total number of electrons
   NUPDOWN=      -1.0000    fix difference up-down

 DOS related values:
   EMIN   =  10.00;   EMAX   =-10.00  energy-range for DOS
   EFERMI =   0.00
   ISMEAR =     1;   SIGMA  =   0.10  broadening in eV -4-tet -1-fermi 0-gaus

 Electronic relaxation 2 (details)
   IALGO  =     38    algorithm
   LDIAG  =      T    sub-space diagonalisation (order eigenvalues)
   LSUBROT=      F    optimize rotation matrix (better conditioning)
   TURBO    =      0    0=normal 1=particle mesh
   IRESTART =      0    0=no restart 2=restart with 2 vectors
   NREBOOT  =      0    no. of reboots
   NMIN     =      0    reboot dimension
   EREF     =   0.00    reference energy to select bands
   IMIX   =      4    mixing-type and parameters
     AMIX     =   0.40;   BMIX     =  1.00
     AMIX_MAG =   1.60;   BMIX_MAG =  1.00
     AMIN     =   0.10
     WC   =   100.;   INIMIX=   1;  MIXPRE=   1;  MAXMIX= -45

 Intra band minimization:
   WEIMIN = 0.0010     energy-eigenvalue tresh-hold
   EBREAK =  0.12E-06  absolut break condition
   DEPER  =   0.30     relativ break condition  

   TIME   =   0.40     timestep for ELM

  volume/ion in A,a.u.               =      18.29       123.42
  Fermi-wavevector in a.u.,A,eV,Ry     =   1.381917  2.611444 25.982960  1.909694
  Thomas-Fermi vector in A             =   2.506656
 
 Write flags
   LWAVE  =      F    write WAVECAR
   LCHARG =      F    write CHGCAR
   LVTOT  =      F    write LOCPOT, total local potential
   LVHAR  =      F    write LOCPOT, Hartree potential only
   LELF   =      F    write electronic localiz. function (ELF)
   LORBIT =      0    0 simple, 1 ext, 2 COOP (PROOUT)


 Dipole corrections
   LMONO  =      F    monopole corrections only (constant potential shift)
   LDIPOL =      F    correct potential (dipole corrections)
   IDIPOL =      0    1-x, 2-y, 3-z, 4-all directions 
   EPSILON=  1.0000000 bulk dielectric constant

 Exchange correlation treatment:
   GGA     =    --    GGA type
   LEXCH   =     8    internal setting for exchange type
   VOSKOWN=      0    Vosko Wilk Nusair interpolation
   LHFCALC =     F    Hartree Fock is set to
   LHFONE  =     F    Hartree Fock one center treatment
   AEXX    =    0.0000 exact exchange contribution

 Linear response parameters
   LEPSILON=     F    determine dielectric tensor
   LRPA    =     F    only Hartree local field effects (RPA)
   LNABLA  =     F    use nabla operator in PAW spheres
   LVEL    =     F    velocity operator in full k-point grid
   LINTERFAST=   F  fast interpolation
   KINTER  =     0    interpolate to denser k-point grid
   CSHIFT  =0.1000    complex shift for real part using Kramers Kronig
   OMEGAMAX=  -1.0    maximum frequency
   DEG_THRESHOLD= 0.2000000E-02 threshold for treating states as degnerate
   RTIME   =    0.100 relaxation time in fs

 Orbital magnetization related:
   ORBITALMAG=     F  switch on orbital magnetization
   LCHIMAG   =     F  perturbation theory with respect to B field
   DQ        =  0.001000  dq finite difference perturbation B field



--------------------------------------------------------------------------------------------------------


 conjugate gradient relaxation of ions
 charge density and potential will be updated during run
 non-spin polarized calculation
 Variant of blocked Davidson
 Davidson routine will perform the subspace rotation
 perform sub-space diagonalisation
    after iterative eigenvector-optimisation
 modified Broyden-mixing scheme, WC =      100.0
 initial mixing is a Kerker type mixing with AMIX =  0.4000 and BMIX =      1.0000
 Hartree-type preconditioning will be used
 using additional bands           35
 reciprocal scheme for non local part
 use partial core corrections
 calculate Harris-corrections to forces 
   (improved forces if not selfconsistent)
 use gradient corrections 
 use of overlap-Matrix (Vanderbilt PP)
 Methfessel and Paxton  Order N= 1 SIGMA  =   0.10


--------------------------------------------------------------------------------------------------------


  energy-cutoff  :      400.00
  volume of cell :      585.22
      direct lattice vectors                 reciprocal lattice vectors
     8.458526959  1.656720733  1.673168563     0.129208067 -0.027792090 -0.028010439
     1.573491987  8.821430406 -1.494376014    -0.029257934  0.123003260  0.026116301
     1.591543182 -1.495192313  8.825093420    -0.029451159  0.026097624  0.123046149

  length of vectors
     8.780142080  9.084419140  9.091253139     0.135098888  0.129104182  0.129185183


 
 k-points in units of 2pi/SCALE and weight: K-Points                                
   0.00000000  0.00000000  0.00000000       1.000
 
 k-points in reciprocal lattice and weights: K-Points                                
   0.00000000  0.00000000  0.00000000       1.000
 
 position of ions in fractional coordinates (direct lattice) 
   0.33080326  0.71381763  0.70975652
   0.36808980  0.69280648  0.29072678
   0.07993951  0.77224820  0.57468761
   0.39754613  0.43677389  0.44733572
   0.19643579  0.69497433  0.02213482
   0.93943065  0.50925042  0.08062262
   0.92619101  0.77472560  0.34817836
   0.08458840  0.56483463  0.77491444
   0.87133425  0.56270024  0.57232089
   0.18202778  0.03329090  0.70854939
   0.22589532  0.97139162  0.21863934
   0.61729781  0.66608880  0.00368679
   0.63660470  0.66934985  0.43651576
   0.93452979  0.08016214  0.51859472
   0.62894707  0.98709908  0.66264313
   0.48888873  0.14259735  0.15197885
   0.36339929  0.27729942  0.70762951
   0.77983028  0.84172597  0.85083918
   0.78673563  0.84890261  0.14049473
   0.44840332  0.88566419  0.89066452
   0.45882016  0.96773247  0.41244881
   0.18044512  0.46101486  0.27299340
   0.22040265  0.21099186  0.98927049
   0.17962469  0.25926429  0.47180345
   0.90615444  0.35436247  0.78622366
   0.78412524  0.13252750  0.85760680
   0.62094055  0.43802337  0.68053013
   0.99260797  0.00529669  0.01245124
   0.68163081  0.15578755  0.39649966
   0.92997966  0.28569918  0.29949708
   0.45844070  0.40341771  0.97910957
   0.68830761  0.38346884  0.16429499
 
 position of ions in cartesian coordinates  (Angst):
   5.05090279  5.78371866  5.75044526
   4.66632718  6.28667371  2.14625392
   2.80593696  6.08550270  4.05139489
   4.76186898  3.84274049  3.96023676
   2.79032247  6.42301112 -0.51454097
   8.87581527  5.92814505  1.52231636
   9.60737705  7.84803423  3.46464889
   2.83756583  3.96414263  6.13614768
   9.16648194  5.55164869  5.66778866
   2.71975681 -0.46417505  6.50782859
   3.78719253  8.61640116  0.85584921
   6.27538327  6.89303362  0.06999245
   7.13268834  6.30662432  3.91717900
   8.85624576  1.48000079  6.02048029
   7.92778341  8.75883655  5.42512482
   4.60153521  1.84062708  1.94612676
   4.63637399  1.99018644  6.43853516
   9.27481184  7.44501990  7.55566767
   8.21396942  8.58186991  1.28764075
   6.60394807  7.22398933  7.28693658
   6.06009212  8.68023125  2.96142660
   2.68618392  3.95758006  2.02217784
   3.77074246  0.74724599  8.78387411
   2.67820609  1.87923296  4.07681352
   9.47362721  3.45167318  7.92509560
   8.20599371  1.18587155  8.68238788
   7.02456173  3.87519433  6.39010858
   8.42415227  1.67258160  1.76276857
   6.64176933  1.91069766  4.40682457
   8.79246590  3.61318630  3.77216044
   6.07080269  2.85427233  8.80492423
   6.68693616  4.27742457  2.02852663
 


--------------------------------------------------------------------------------------------------------


 k-point  1 :   0.0000 0.0000 0.0000  plane waves:   10631

 maximum and minimum number of plane-waves per node :       668      658

 maximum number of plane-waves:     10631
 maximum index in each direction: 
   IXMAX=   14   IYMAX=   14   IZMAX=   14
   IXMIN=  -14   IYMIN=  -14   IZMIN=  -14

 NGX is ok and might be reduce to  58
 NGY is ok and might be reduce to  58
 NGZ is ok and might be reduce to  58

 parallel 3D FFT for wavefunctions:
    minimum data exchange during FFTs selected (reduces bandwidth)
 parallel 3D FFT for charge:
    minimum data exchange during FFTs selected (reduces bandwidth)


 total amount of memory used by VASP on root node    44326. kBytes
========================================================================

   base      :      30000. kBytes
   nonl-proj :        533. kBytes
   fftplans  :       4282. kBytes
   grid      :       7107. kBytes
   one-center:         31. kBytes
   wavefun   :       2373. kBytes
 
     INWAV:  cpu time    0.0000: real time    0.0002
 Broyden mixing: mesh for mixing (old mesh)
   NGX = 29   NGY = 29   NGZ = 29
  (NGX  =120   NGY  =120   NGZ  =120)
  gives a total of  24389 points

 initial charge density was supplied:
 charge density of overlapping atoms calculated
 number of electron     352.0000000 magnetization 
 keeping initial charge density in first step


--------------------------------------------------------------------------------------------------------


 Maximum index for augmentation-charges         1519 (set IRDMAX)


--------------------------------------------------------------------------------------------------------


 First call to EWALD:  gamma=   0.212
 Maximum number of real-space cells 3x 3x 3
 Maximum number of reciprocal cells 3x 3x 3

 FEWALD executed in parallel
    FEWALD:  cpu time    0.0025: real time    0.0025


----------------------------------------- Iteration    1(   1)  ---------------------------------------


    POTLOK:  cpu time    0.0799: real time    0.0799
    SETDIJ:  cpu time    0.0111: real time    0.0111
     EDDAV:  cpu time    0.8386: real time    0.8385
       DOS:  cpu time    0.0007: real time    0.0006
    --------------------------------------------
      LOOP:  cpu time    0.9325: real time    0.9876

 eigenvalue-minimisations  :   422
 total energy-change (2. order) : 0.2239994E+04  (-0.1547300E+05)
 number of electron     352.0000000 magnetization 
 augmentation part      352.0000000 magnetization 

 Free energy of the ion-electron system (eV)
  ---------------------------------------------------
  alpha Z        PSCENC =      1488.30708061
  Ewald energy   TEWEN  =    -30321.78263505
  -Hartree energ DENC   =     -7041.99957509
  -exchange      EXHF   =         0.00000000
  -V(xc)+E(xc)   XCENC  =      -337.19942902
  PAW double counting   =     32110.78877845   -30635.17677538
  entropy T*S    EENTRO =         0.02521180
  eigenvalues    EBANDS =      3784.76206265
  atomic energy  EATOM  =     33192.26970804
  Solvation  Ediel_sol  =         0.00000000
  ---------------------------------------------------
  free energy    TOTEN  =      2239.99442700 eV

  energy without entropy =     2239.96921521  energy(sigma->0) =     2239.98602307


--------------------------------------------------------------------------------------------------------




----------------------------------------- Iteration    1(   2)  ---------------------------------------


     EDDAV:  cpu time    0.8534: real time    0.8530
       DOS:  cpu time    0.0009: real time    0.0009
    --------------------------------------------
      LOOP:  cpu time    0.8549: real time    0.9454

 eigenvalue-minimisations  :   433
 total energy-change (2. order) :-0.2257107E+04  (-0.2135999E+04)
 number of electron     352.0000000 magnetization 
 augmentation part      352.0000000 magnetization 

 Free energy of the ion-electron system (eV)
  ---------------------------------------------------
  alpha Z        PSCENC =      1488.30708061
  Ewald energy   TEWEN  =    -30321.78263505
  -Hartree energ DENC   =     -7041.99957509
  -exchange      EXHF   =         0.00000000
  -V(xc)+E(xc)   XCENC  =      -337.19942902
  PAW double counting   =     32110.78877845   -30635.17677538
  entropy T*S    EENTRO =         0.00579793
  eigenvalues    EBANDS =      1527.67466701
  atomic energy  EATOM  =     33192.26970804
  Solvation  Ediel_sol  =         0.00000000
  ---------------------------------------------------
  free energy    TOTEN  =       -17.11238250 eV

  energy without entropy =      -17.11818044  energy(sigma->0) =      -17.11431515


--------------------------------------------------------------------------------------------------------




----------------------------------------- Iteration    1(   3)  ---------------------------------------


     EDDAV:  cpu time    0.8903: real time    0.8905
       DOS:  cpu time    0.0001: real time    0.0009
    --------------------------------------------
      LOOP:  cpu time    0.8921: real time    1.0289

 eigenvalue-minimisations  :   460
 total energy-change (2. order) :-0.7829717E+02  (-0.7677875E+02)
 number of electron     352.0000000 magnetization 
 augmentation part      352.0000000 magnetization 

 Free energy of the ion-electron system (eV)
  ---------------------------------------------------
  alpha Z        PSCENC =      1488.30708061
  Ewald energy   TEWEN  =    -30321.78263505
  -Hartree energ DENC   =     -7041.99957509
  -exchange      EXHF   =         0.00000000
  -V(xc)+E(xc)   XCENC  =      -337.19942902
  PAW double counting   =     32110.78877845   -30635.17677538
  entropy T*S    EENTRO =         0.00581902
  eigenvalues    EBANDS =      1449.37747800
  atomic energy  EATOM  =     33192.26970804
  Solvation  Ediel_sol  =         0.00000000
  ---------------------------------------------------
  free energy    TOTEN  =       -95.40955043 eV

  energy without entropy =      -95.41536945  energy(sigma->0) =      -95.41149010


--------------------------------------------------------------------------------------------------------




----------------------------------------- Iteration    1(   4)  ---------------------------------------


     EDDAV:  cpu time    0.8551: real time    0.8547
       DOS:  cpu time    0.0010: real time    0.0010
    --------------------------------------------
      LOOP:  cpu time    0.8566: real time    1.2035

 eigenvalue-minimisations  :   436
 total energy-change (2. order) :-0.7739985E+00  (-0.7723735E+00)
 number of electron     352.0000000 magnetization 
 augmentation part      352.0000000 magnetization 

 Free energy of the ion-electron system (eV)
  ---------------------------------------------------
  alpha Z        PSCENC =      1488.30708061
  Ewald energy   TEWEN  =    -30321.78263505
  -Hartree energ DENC   =     -7041.99957509
  -exchange      EXHF   =         0.00000000
  -V(xc)+E(xc)   XCENC  =      -337.19942902
  PAW double counting   =     32110.78877845   -30635.17677538
  entropy T*S    EENTRO =         0.00582478
  eigenvalues    EBANDS =      1448.60347377
  atomic energy  EATOM  =     33192.26970804
  Solvation  Ediel_sol  =         0.00000000
  ---------------------------------------------------
  free energy    TOTEN  =       -96.18354890 eV

  energy without entropy =      -96.18937368  energy(sigma->0) =      -96.18549049


--------------------------------------------------------------------------------------------------------




----------------------------------------- Iteration    1(   5)  ---------------------------------------


     EDDAV:  cpu time    0.8491: real time    0.8487
       DOS:  cpu time    0.0009: real time    0.0009
    CHARGE:  cpu time    0.0566: real time    0.0565
    MIXING:  cpu time    0.0023: real time    0.0023
    --------------------------------------------
      LOOP:  cpu time    0.9094: real time    1.0527

 eigenvalue-minimisations  :   433
 total energy-change (2. order) :-0.6328642E-02  (-0.6328522E-02)
 number of electron     351.9999990 magnetization 
 augmentation part      162.8450357 magnetization 

 Broyden mixing:
  rms(total) = 0.26104E+01    rms(broyden)= 0.26104E+01
  rms(prec ) = 0.32548E+01
  weight for this iteration     100.00

 Free energy of the ion-electron system (eV)
  ---------------------------------------------------
  alpha Z        PSCENC =      1488.30708061
  Ewald energy   TEWEN  =    -30321.78263505
  -Hartree energ DENC   =     -7041.99957509
  -exchange      EXHF   =         0.00000000
  -V(xc)+E(xc)   XCENC  =      -337.19942902
  PAW double counting   =     32110.78877845   -30635.17677538
  entropy T*S    EENTRO =         0.00582479
  eigenvalues    EBANDS =      1448.59714511
  atomic energy  EATOM  =     33192.26970804
  Solvation  Ediel_sol  =         0.00000000
  ---------------------------------------------------
  free energy    TOTEN  =       -96.18987754 eV

  energy without entropy =      -96.19570233  energy(sigma->0) =      -96.19181914


--------------------------------------------------------------------------------------------------------




----------------------------------------- Iteration    1(   6)  ---------------------------------------


    POTLOK:  cpu time    0.0804: real time    0.0804
    SETDIJ:  cpu time    0.0112: real time    0.0111
     EDDAV:  cpu time    0.8342: real time    0.8337
       DOS:  cpu time    0.0010: real time    0.0010
    CHARGE:  cpu time    0.0547: real time    0.0546
    MIXING:  cpu time    0.0023: real time    0.0023
    --------------------------------------------
      LOOP:  cpu time    0.9846: real time    1.4695

 eigenvalue-minimisations  :   425
 total energy-change (2. order) : 0.7084247E+01  (-0.2501098E+01)
 number of electron     351.9999990 magnetization 
 augmentation part      167.7012322 magnetization 

 Broyden mixing:
  rms(total) = 0.17009E+01    rms(broyden)= 0.17009E+01
  rms(prec ) = 0.17372E+01
  weight for this iteration     100.00

 eigenvalues of (default mixing * dielectric matrix)
  average eigenvalue GAMMA=   1.2334
  1.2334

 Free energy of the ion-electron system (eV)
  ---------------------------------------------------
  alpha Z        PSCENC =      1488.30708061
  Ewald energy   TEWEN  =    -30321.78263505
  -Hartree energ DENC   =     -6739.17341520
  -exchange      EXHF   =         0.00000000
  -V(xc)+E(xc)   XCENC  =      -347.99598849
  PAW double counting   =     33401.64326935   -31955.83980471
  entropy T*S    EENTRO =         0.00668754
  eigenvalues    EBANDS =      1193.45946732
  atomic energy  EATOM  =     33192.26970804
  Solvation  Ediel_sol  =         0.00000000
  ---------------------------------------------------
  free energy    TOTEN  =       -89.10563059 eV

  energy without entropy =      -89.11231813  energy(sigma->0) =      -89.10785977


--------------------------------------------------------------------------------------------------------




----------------------------------------- Iteration    1(   7)  ---------------------------------------


    POTLOK:  cpu time    0.0777: real time    0.0777
    SETDIJ:  cpu time    0.0111: real time    0.0111
     EDDAV:  cpu time    0.8448: real time    0.8443
       DOS:  cpu time    0.0009: real time    0.0009
    CHARGE:  cpu time    0.0546: real time    0.0545
    MIXING:  cpu time    0.0023: real time    0.0023
    --------------------------------------------
      LOOP:  cpu time    0.9920: real time    1.0779

 eigenvalue-minimisations  :   433
 total energy-change (2. order) : 0.2372297E+00  (-0.5553433E-01)
 number of electron     351.9999990 magnetization 
 augmentation part      168.2616119 magnetization 

 Broyden mixing:
  rms(total) = 0.95548E+00    rms(broyden)= 0.95548E+00
  rms(prec ) = 0.96370E+00
  weight for this iteration     100.00

 eigenvalues of (default mixing * dielectric matrix)
  average eigenvalue GAMMA=   1.8262
  1.0660  2.5865

 Free energy of the ion-electron system (eV)
  ---------------------------------------------------
  alpha Z        PSCENC =      1488.30708061
  Ewald energy   TEWEN  =    -30321.78263505
  -Hartree energ DENC   =     -6681.52405875
  -exchange      EXHF   =         0.00000000
  -V(xc)+E(xc)   XCENC  =      -350.14005353
  PAW double counting   =     34206.23607843   -32783.97741384
  entropy T*S    EENTRO =         0.00712988
  eigenvalues    EBANDS =      1161.73576329
  atomic energy  EATOM  =     33192.26970804
  Solvation  Ediel_sol  =         0.00000000
  ---------------------------------------------------
  free energy    TOTEN  =       -88.86840093 eV

  energy without entropy =      -88.87553081  energy(sigma->0) =      -88.87077756


--------------------------------------------------------------------------------------------------------




----------------------------------------- Iteration    1(   8)  ---------------------------------------


    POTLOK:  cpu time    0.0791: real time    0.0795
    SETDIJ:  cpu time    0.0111: real time    0.0111
     EDDAV:  cpu time    0.8381: real time    0.8375
       DOS:  cpu time    0.0009: real time    0.0009
    CHARGE:  cpu time    0.0578: real time    0.0579
    MIXING:  cpu time    0.0032: real time    0.0032
    --------------------------------------------
      LOOP:  cpu time    0.9909: real time    1.0834

 eigenvalue-minimisations  :   428
 total energy-change (2. order) : 0.7747239E-01  (-0.5041029E-02)
 number of electron     351.9999990 magnetization 
 augmentation part      168.2856938 magnetization 

 Broyden mixing:
  rms(total) = 0.45250E-01    rms(broyden)= 0.45246E-01
  rms(prec ) = 0.49918E-01
  weight for this iteration     100.00

 eigenvalues of (default mixing * dielectric matrix)
  average eigenvalue GAMMA=   1.4879
  2.5224  1.0764  0.8649

 Free energy of the ion-electron system (eV)
  ---------------------------------------------------
  alpha Z        PSCENC =      1488.30708061
  Ewald energy   TEWEN  =    -30321.78263505
  -Hartree energ DENC   =     -6646.41348249
  -exchange      EXHF   =         0.00000000
  -V(xc)+E(xc)   XCENC  =      -351.50532053
  PAW double counting   =     35352.70002252   -33955.66289588
  entropy T*S    EENTRO =         0.00725681
  eigenvalues    EBANDS =      1153.28933745
  atomic energy  EATOM  =     33192.26970804
  Solvation  Ediel_sol  =         0.00000000
  ---------------------------------------------------
  free energy    TOTEN  =       -88.79092854 eV

  energy without entropy =      -88.79818535  energy(sigma->0) =      -88.79334748


--------------------------------------------------------------------------------------------------------




----------------------------------------- Iteration    1(   9)  ---------------------------------------


    POTLOK:  cpu time    0.0786: real time    0.0797
    SETDIJ:  cpu time    0.0111: real time    0.0111
     EDDAV:  cpu time    0.8547: real time    0.8543
       DOS:  cpu time    0.0010: real time    0.0010
    CHARGE:  cpu time    0.0547: real time    0.0546
    MIXING:  cpu time    0.0024: real time    0.0024
    --------------------------------------------
      LOOP:  cpu time    1.0044: real time    1.1827

 eigenvalue-minimisations  :   441
 total energy-change (2. order) : 0.3064571E-03  (-0.4421957E-03)
 number of electron     351.9999990 magnetization 
 augmentation part      168.2929292 magnetization 

 Broyden mixing:
  rms(total) = 0.17562E-01    rms(broyden)= 0.17561E-01
  rms(prec ) = 0.19224E-01
  weight for this iteration     100.00

 eigenvalues of (default mixing * dielectric matrix)
  average eigenvalue GAMMA=   1.6228
  0.8725  1.0751  2.3564  2.1873

 Free energy of the ion-electron system (eV)
  ---------------------------------------------------
  alpha Z        PSCENC =      1488.30708061
  Ewald energy   TEWEN  =    -30321.78263505
  -Hartree energ DENC   =     -6646.58512304
  -exchange      EXHF   =         0.00000000
  -V(xc)+E(xc)   XCENC  =      -351.50248945
  PAW double counting   =     35373.34507148   -33975.70365927
  entropy T*S    EENTRO =         0.00727625
  eigenvalues    EBANDS =      1152.85414835
  atomic energy  EATOM  =     33192.26970804
  Solvation  Ediel_sol  =         0.00000000
  ---------------------------------------------------
  free energy    TOTEN  =       -88.79062208 eV

  energy without entropy =      -88.79789833  energy(sigma->0) =      -88.79304750


--------------------------------------------------------------------------------------------------------




----------------------------------------- Iteration    1(  10)  ---------------------------------------


    POTLOK:  cpu time    0.0782: real time    0.0781
    SETDIJ:  cpu time    0.0110: real time    0.0110
     EDDAV:  cpu time    0.8481: real time    0.8479
       DOS:  cpu time    0.0009: real time    0.0009
    CHARGE:  cpu time    0.0546: real time    0.0546
    MIXING:  cpu time    0.0025: real time    0.0025
    --------------------------------------------
      LOOP:  cpu time    0.9962: real time    1.1265

 eigenvalue-minimisations  :   436
 total energy-change (2. order) :-0.3481604E-03  (-0.1258296E-03)
 number of electron     351.9999990 magnetization 
 augmentation part      168.3022150 magnetization 

 Broyden mixing:
  rms(total) = 0.84191E-02    rms(broyden)= 0.84188E-02
  rms(prec ) = 0.96182E-02
  weight for this iteration     100.00

 eigenvalues of (default mixing * dielectric matrix)
  average eigenvalue GAMMA=   1.5993
  2.5364  2.5364  1.0616  0.9311  0.9311

 Free energy of the ion-electron system (eV)
  ---------------------------------------------------
  alpha Z        PSCENC =      1488.30708061
  Ewald energy   TEWEN  =    -30321.78263505
  -Hartree energ DENC   =     -6646.54832481
  -exchange      EXHF   =         0.00000000
  -V(xc)+E(xc)   XCENC  =      -351.51103354
  PAW double counting   =     35440.10593704   -34041.83162667
  entropy T*S    EENTRO =         0.00727424
  eigenvalues    EBANDS =      1152.19264991
  atomic energy  EATOM  =     33192.26970804
  Solvation  Ediel_sol  =         0.00000000
  ---------------------------------------------------
  free energy    TOTEN  =       -88.79097024 eV

  energy without entropy =      -88.79824448  energy(sigma->0) =      -88.79339499


--------------------------------------------------------------------------------------------------------




----------------------------------------- Iteration    1(  11)  ---------------------------------------


    POTLOK:  cpu time    0.0779: real time    0.0781
    SETDIJ:  cpu time    0.0110: real time    0.0110
     EDDAV:  cpu time    0.5503: real time    0.5499
       DOS:  cpu time    0.0010: real time    0.0010
    --------------------------------------------
      LOOP:  cpu time    0.6407: real time    0.9725

 eigenvalue-minimisations  :   222
 total energy-change (2. order) :-0.2320026E-04  (-0.2034068E-04)
 number of electron     351.9999990 magnetization 
 augmentation part      168.3022150 magnetization 

 Free energy of the ion-electron system (eV)
  ---------------------------------------------------
  alpha Z        PSCENC =      1488.30708061
  Ewald energy   TEWEN  =    -30321.78263505
  -Hartree energ DENC   =     -6646.55110579
  -exchange      EXHF   =         0.00000000
  -V(xc)+E(xc)   XCENC  =      -351.51421436
  PAW double counting   =     35468.00167751   -34069.72005071
  entropy T*S    EENTRO =         0.00726649
  eigenvalues    EBANDS =      1152.19127982
  atomic energy  EATOM  =     33192.26970804
  Solvation  Ediel_sol  =         0.00000000
  ---------------------------------------------------
  free energy    TOTEN  =       -88.79099344 eV

  energy without entropy =      -88.79825993  energy(sigma->0) =      -88.79341561


--------------------------------------------------------------------------------------------------------




 average (electrostatic) potential at core
  the test charge radii are     0.0000  1.1249
  (the norm of the test charge is              1.0000)
       1 -71.6403       2 -71.5598       3 -71.6702       4 -71.6945       5 -71.5305
       6 -71.5017       7 -71.5944       8 -71.6653       9 -71.6505      10 -71.5163
      11 -71.5850      12 -71.5629      13 -71.4787      14 -71.5210      15 -71.5525
      16 -71.5329      17 -71.5551      18 -71.8192      19 -71.6979      20 -71.6268
      21 -71.5901      22 -71.7213      23 -71.5781      24 -71.7294      25 -71.6075
      26 -71.7147      27 -71.4656      28 -71.4951      29 -71.5636      30 -71.5256
      31 -71.5740      32 -71.5509
 
 
 
 E-fermi :   7.3899     XC(G=0): -11.7662     alpha+bet :-12.5510


 k-point     1 :       0.0000    0.0000    0.0000
  band No.  band energies     occupation 
      1       0.1913      2.00000
      2       1.4076      2.00000
      3       1.4324      2.00000
      4       1.4438      2.00000
      5       1.4506      2.00000
      6       1.4885      2.00000
      7       1.5374      2.00000
      8       1.5816      2.00000
      9       1.6250      2.00000
     10       1.6349      2.00000
     11       1.6687      2.00000
     12       1.7011      2.00000
     13       1.7055      2.00000
     14       1.7339      2.00000
     15       1.7576      2.00000
     16       1.7862      2.00000
     17       1.8203      2.00000
     18       1.8393      2.00000
     19       1.8453      2.00000
     20       1.8692      2.00000
     21       1.8813      2.00000
     22       1.9197      2.00000
     23       1.9341      2.00000
     24       1.9523      2.00000
     25       1.9616      2.00000
     26       1.9653      2.00000
     27       2.0133      2.00000
     28       2.0194      2.00000
     29       2.0325      2.00000
     30       2.0413      2.00000
     31       2.0692      2.00000
     32       2.0919      2.00000
     33       2.0963      2.00000
     34       2.1288      2.00000
     35       2.1345      2.00000
     36       2.1487      2.00000
     37       2.1539      2.00000
     38       2.1914      2.00000
     39       2.2028      2.00000
     40       2.2388      2.00000
     41       2.2548      2.00000
     42       2.2721      2.00000
     43       2.2734      2.00000
     44       2.3004      2.00000
     45       2.3164      2.00000
     46       2.3354      2.00000
     47       2.3478      2.00000
     48       2.3644      2.00000
     49       2.3659      2.00000
     50       2.3814      2.00000
     51       2.4009      2.00000
     52       2.4288      2.00000
     53       2.4511      2.00000
     54       2.4538      2.00000
     55       2.4645      2.00000
     56       2.4868      2.00000
     57       2.5161      2.00000
     58       2.5338      2.00000
     59       2.5696      2.00000
     60       2.5736      2.00000
     61       2.6044      2.00000
     62       2.6285      2.00000
     63       2.6479      2.00000
     64       2.6937      2.00000
     65       2.7120      2.00000
     66       2.7198      2.00000
     67       2.7494      2.00000
     68       2.7867      2.00000
     69       2.8182      2.00000
     70       2.8282      2.00000
     71       2.8470      2.00000
     72       2.8871      2.00000
     73       2.9032      2.00000
     74       2.9231      2.00000
     75       2.9611      2.00000
     76       2.9980      2.00000
     77       3.0122      2.00000
     78       3.0189      2.00000
     79       3.0283      2.00000
     80       3.1033      2.00000
     81       3.1284      2.00000
     82       3.1582      2.00000
     83       3.1827      2.00000
     84       3.2102      2.00000
     85       3.2180      2.00000
     86       3.2211      2.00000
     87       3.2484      2.00000
     88       3.2925      2.00000
     89       3.3131      2.00000
     90       3.3375      2.00000
     91       3.3442      2.00000
     92       3.3568      2.00000
     93       3.3594      2.00000
     94       3.3851      2.00000
     95       3.4040      2.00000
     96       3.4561      2.00000
     97       3.4624      2.00000
     98       3.4872      2.00000
     99       3.5109      2.00000
    100       3.5206      2.00000
    101       3.5415      2.00000
    102       3.5570      2.00000
    103       3.5720      2.00000
    104       3.5818      2.00000
    105       3.5939      2.00000
    106       3.6251      2.00000
    107       3.6485      2.00000
    108       3.6713      2.00000
    109       3.6959      2.00000
    110       3.6999      2.00000
    111       3.7070      2.00000
    112       3.7511      2.00000
    113       3.7623      2.00000
    114       3.7758      2.00000
    115       3.7915      2.00000
    116       3.8215      2.00000
    117       3.8400      2.00000
    118       3.8659      2.00000
    119       3.8971      2.00000
    120       3.9159      2.00000
    121       3.9313      2.00000
    122       3.9420      2.00000
    123       3.9528      2.00000
    124       3.9718      2.00000
    125       3.9747      2.00000
    126       3.9952      2.00000
    127       4.0092      2.00000
    128       4.0169      2.00000
    129       4.0407      2.00000
    130       4.0551      2.00000
    131       4.0833      2.00000
    132       4.0902      2.00000
    133       4.0964      2.00000
    134       4.1343      2.00000
    135       4.1511      2.00000
    136       4.1762      2.00000
    137       4.1979      2.00000
    138       4.2178      2.00000
    139       4.2268      2.00000
    140       4.2493      2.00000
    141       4.2706      2.00000
    142       4.2728      2.00000
    143       4.3057      2.00000
    144       4.3184      2.00000
    145       4.3612      2.00000
    146       4.3717      2.00000
    147       4.3980      2.00000
    148       4.4221      2.00000
    149       4.4357      2.00000
    150       4.4544      2.00000
    151       4.4707      2.00000
    152       4.4839      2.00000
    153       4.5068      2.00000
    154       4.5114      2.00000
    155       4.5245      2.00000
    156       4.5448      2.00000
    157       4.5694      2.00000
    158       4.5955      2.00000
    159       4.6296      2.00000
    160       4.6581      2.00000
    161       4.7232      2.00000
    162       4.7855      2.00000
    163       4.8381      2.00000
    164       4.8555      2.00000
    165       4.8751      2.00000
    166       4.8839      2.00000
    167       4.9807      2.00000
    168       5.0971      2.00000
    169       5.1121      2.00000
    170       5.2611      2.00000
    171       5.2680      2.00000
    172       5.3031      2.00000
    173       5.3093      2.00000
    174       7.1463      2.00307
    175       7.1598      2.00539
    176       7.3075      1.99154
    177       7.9166     -0.00000
    178       8.6998     -0.00000
    179       8.7813     -0.00000
    180       9.2327     -0.00000
    181       9.5308     -0.00000
    182       9.6910     -0.00000
    183       9.8789     -0.00000
    184      10.0053     -0.00000
    185      10.2341      0.00000
    186      10.4132      0.00000
    187      10.5250      0.00000
    188      10.6307      0.00000
    189      10.6881      0.00000
    190      10.8791      0.00000
    191      10.9343      0.00000
    192      10.9697      0.00000
    193      11.1166      0.00000
    194      11.2731      0.00000
    195      11.4164      0.00000
    196      11.4815      0.00000
    197      11.5146      0.00000
    198      11.5815      0.00000
    199      11.6098      0.00000
    200      11.7531      0.00000
    201      11.8649      0.00000
    202      12.1277      0.00000
    203      12.1587      0.00000
    204      13.2637      0.00000
    205      13.3881      0.00000
    206      13.4942      0.00000
    207      13.6505      0.00000
    208      13.8158      0.00000
    209      13.9008      0.00000
    210      14.0588      0.00000
    211      14.2169      0.00000


--------------------------------------------------------------------------------------------------------


 soft charge-density along one line, spin component           1
         0         1         2         3         4         5         6         7         8         9
 total charge-density along one line
 
 pseudopotential strength for first ion, spin component:           1
 -4.549  -0.008  -0.002  -0.007  -0.002  -4.760  -0.008  -0.002
 -0.008  -4.559  -0.006  -0.007   0.012  -0.008  -4.770  -0.006
 -0.002  -0.006  -4.545   0.002  -0.007  -0.002  -0.006  -4.756
 -0.007  -0.007   0.002  -4.549  -0.001  -0.007  -0.007   0.002
 -0.002   0.012  -0.007  -0.001  -4.540  -0.002   0.012  -0.007
 -4.760  -0.008  -0.002  -0.007  -0.002  -4.937  -0.008  -0.002
 -0.008  -4.770  -0.006  -0.007   0.012  -0.008  -4.947  -0.006
 -0.002  -0.006  -4.756   0.002  -0.007  -0.002  -0.006  -4.934
 -0.007  -0.007   0.002  -4.760  -0.001  -0.007  -0.006   0.002
 -0.002   0.012  -0.007  -0.001  -4.752  -0.002   0.011  -0.006
  0.001   0.004   0.001   0.001  -0.002   0.001   0.004   0.001
  0.001   0.006   0.002   0.002  -0.004   0.001   0.006   0.002
  0.006  -0.002  -0.001   0.001   0.001   0.006  -0.002  -0.001
  0.001  -0.002  -0.000   0.006   0.001   0.001  -0.002  -0.000
 -0.000   0.001  -0.004  -0.001   0.007  -0.000   0.001  -0.004
  0.007  -0.003  -0.000   0.001   0.001   0.007  -0.003  -0.000
  0.001  -0.003  -0.001   0.007   0.001   0.001  -0.003  -0.001
 -0.001   0.001  -0.004  -0.001   0.008  -0.001   0.001  -0.004
 total augmentation occupancy for first ion, spin component:           1
  3.396   0.106  -0.083   0.131  -0.013  -1.440  -0.180   0.037  -0.128  -0.022  -0.095   0.026  -0.043  -0.019  -0.002   0.005
  0.106   3.332   0.028   0.082  -0.020  -0.179  -1.407  -0.053  -0.151   0.081  -0.272   0.066  -0.039  -0.018  -0.037  -0.000
 -0.083   0.028   3.424   0.077   0.008   0.037  -0.053  -1.362  -0.029  -0.030  -0.069   0.010  -0.026  -0.026   0.015  -0.001
  0.131   0.082   0.077   3.366   0.086  -0.128  -0.151  -0.029  -1.430  -0.071  -0.146   0.043  -0.016  -0.043  -0.011   0.001
 -0.013  -0.020   0.008   0.086   3.384  -0.022   0.081  -0.030  -0.071  -1.321   0.126  -0.023   0.015   0.036  -0.019  -0.001
 -1.440  -0.179   0.037  -0.128  -0.022   1.434   0.245   0.000   0.130   0.052   0.097  -0.025   0.027   0.023   0.003   0.000
 -0.180  -1.407  -0.053  -0.151   0.081   0.245   1.428   0.075   0.211  -0.132   0.239  -0.050   0.023   0.004   0.038   0.000
  0.037  -0.053  -1.362  -0.029  -0.030   0.000   0.075   1.266  -0.011   0.050   0.052  -0.004   0.013   0.033  -0.011   0.000
 -0.128  -0.151  -0.029  -1.430  -0.071   0.130   0.211  -0.011   1.441   0.061   0.149  -0.040   0.021   0.029   0.009  -0.001
 -0.022   0.081  -0.030  -0.071  -1.321   0.052  -0.132   0.050   0.061   1.225  -0.095   0.010  -0.013  -0.024   0.016   0.001
 -0.095  -0.272  -0.069  -0.146   0.126   0.097   0.239   0.052   0.149  -0.095   2.256  -0.404  -0.006   0.003  -0.031   0.001
  0.026   0.066   0.010   0.043  -0.023  -0.025  -0.050  -0.004  -0.040   0.010  -0.404   0.084   0.002  -0.002  -0.002  -0.000
 -0.043  -0.039  -0.026  -0.016   0.015   0.027   0.023   0.013   0.021  -0.013  -0.006   0.002   0.171   0.008   0.005  -0.010
 -0.019  -0.018  -0.026  -0.043   0.036   0.023   0.004   0.033   0.029  -0.024   0.003  -0.002   0.008   0.173   0.008  -0.001
 -0.002  -0.037   0.015  -0.011  -0.019   0.003   0.038  -0.011   0.009   0.016  -0.031  -0.002   0.005   0.008   0.177  -0.000
  0.005  -0.000  -0.001   0.001  -0.001   0.000   0.000   0.000  -0.001   0.001   0.001  -0.000  -0.010  -0.001  -0.000   0.001
  0.001  -0.001   0.003   0.005  -0.000  -0.001   0.001  -0.002   0.000   0.000  -0.000   0.000  -0.001  -0.010  -0.001   0.000
  0.000   0.002  -0.003   0.000   0.006   0.000  -0.002   0.001   0.000  -0.001   0.003  -0.001  -0.000  -0.001  -0.010   0.000


------------------------ aborting loop because EDIFF is reached ----------------------------------------


    CHARGE:  cpu time    0.0554: real time    0.0554
    FORLOC:  cpu time    0.0214: real time    0.0214
    FORNL :  cpu time    0.8687: real time    0.8682
    STRESS:  cpu time    0.6782: real time    0.6778
    FORCOR:  cpu time    0.1025: real time    0.1024
    FORHAR:  cpu time    0.0383: real time    0.0383
    MIXING:  cpu time    0.0028: real time    0.0028
    OFIELD:  cpu time    0.0000: real time    0.0000

  FORCE on cell =-STRESS in cart. coord.  units (eV):
  Direction    XX          YY          ZZ          XY          YZ          ZX
  --------------------------------------------------------------------------------------
  Alpha Z  1488.30708  1488.30708  1488.30708
  Ewald  -10293.69148-10013.02274-10015.18297   -99.50771   156.53180   -77.41248
  Hartree  2123.72778  2262.54977  2260.28981   -42.82764    68.56412   -34.22628
  E(xc)   -1860.27578 -1859.73442 -1859.72017    -0.27424     0.35570    -0.23243
  Local    1492.38827  1091.56472  1096.03795   133.29042  -211.21468   104.27805
  n-local  -272.42224  -275.57999  -275.64903     0.70891    -1.85488     0.98296
  augment  2949.32820  2945.08629  2945.05285     2.64101    -3.51982     2.09134
  Kinetic  4373.09498  4361.53516  4361.61822     5.73154    -9.12784     4.76028
  Fock        0.00000     0.00000     0.00000     0.00000     0.00000     0.00000
  -------------------------------------------------------------------------------------
  Total       0.45681     0.70587     0.75374    -0.23770    -0.26559     0.24145
  in kB       1.25062     1.93247     2.06352    -0.65075    -0.72711     0.66101
  external pressure =        1.75 kB  Pullay stress =        0.00 kB


 VOLUME and BASIS-vectors are now :
 -----------------------------------------------------------------------------
  energy-cutoff  :      400.00
  volume of cell :      585.22
      direct lattice vectors                 reciprocal lattice vectors
     8.458526959  1.656720733  1.673168563     0.129208067 -0.027792090 -0.028010439
     1.573491987  8.821430406 -1.494376014    -0.029257934  0.123003260  0.026116301
     1.591543182 -1.495192313  8.825093420    -0.029451159  0.026097624  0.123046149

  length of vectors
     8.780142080  9.084419140  9.091253139     0.135098888  0.129104182  0.129185183


 FORCES acting on ions
    electron-ion (+dipol)            ewald-force                    non-local-force                 convergence-correction
 -----------------------------------------------------------------------------------------------
   -.529E+02 -.151E+02 -.345E+01   0.513E+02 0.150E+02 0.325E+01   0.159E+01 0.152E+00 0.199E+00   0.281E-01 0.919E-02 0.538E-02
   -.139E+01 -.334E+02 -.400E+01   0.113E+01 0.329E+02 0.433E+01   0.249E+00 0.395E+00 -.348E+00   0.122E-01 0.144E-01 0.383E-04
   -.231E+02 -.432E+02 0.138E+02   0.228E+02 0.436E+02 -.135E+02   0.200E+00 -.312E+00 -.388E+00   -.150E-01 0.148E-01 0.899E-02
   -.634E+02 -.140E+01 -.155E+01   0.630E+02 0.867E+00 0.108E+01   0.451E+00 0.553E+00 0.461E+00   0.198E-01 0.991E-02 0.102E-01
   -.285E+02 0.171E+02 -.237E+02   0.289E+02 -.169E+02 0.240E+02   -.381E+00 -.224E+00 -.316E+00   -.941E-02 -.607E-02 0.288E-02
   -.158E+02 0.351E+02 -.600E+01   0.161E+02 -.351E+02 0.708E+01   -.214E+00 -.564E-01 -.105E+01   -.113E-01 0.179E-02 -.140E-01
   -.112E+02 -.238E+02 0.180E+02   0.113E+02 0.239E+02 -.171E+02   -.148E+00 -.700E-01 -.996E+00   -.429E-02 0.117E-01 -.560E-02
   -.249E+02 0.120E+02 -.453E+02   0.247E+02 -.116E+02 0.456E+02   0.163E+00 -.426E+00 -.304E+00   -.166E-01 0.869E-02 0.144E-01
   0.741E+02 0.195E+01 0.984E+01   -.739E+02 -.165E+01 -.945E+01   -.246E+00 -.341E+00 -.397E+00   -.334E-01 0.128E-01 0.107E-01
   -.356E+02 -.155E+02 0.965E+01   0.360E+02 0.161E+02 -.942E+01   -.363E+00 -.617E+00 -.242E+00   -.980E-02 -.268E-02 -.439E-02
   0.949E+01 0.174E+02 0.103E+02   -.860E+01 -.175E+02 -.101E+02   -.864E+00 0.991E-01 -.253E+00   -.136E-01 -.708E-02 -.121E-01
   0.412E+02 0.215E+02 -.210E+02   -.421E+02 -.221E+02 0.209E+02   0.817E+00 0.667E+00 0.147E+00   0.141E-01 -.150E-02 0.864E-03
   0.257E+02 0.601E+01 -.193E+02   -.261E+02 -.654E+01 0.186E+02   0.431E+00 0.563E+00 0.693E+00   0.779E-02 0.473E-02 0.165E-01
   -.933E+01 0.116E+00 0.319E+02   0.955E+01 0.104E+01 -.320E+02   -.185E+00 -.114E+01 0.170E+00   -.115E-01 -.155E-01 0.477E-02
   0.509E+02 -.201E+02 0.129E+02   -.516E+02 0.199E+02 -.138E+02   0.691E+00 0.124E+00 0.901E+00   0.993E-02 0.114E-02 0.360E-02
   -.121E+02 0.116E+02 0.148E+02   0.119E+02 -.119E+02 -.152E+02   0.154E+00 0.325E+00 0.425E+00   0.281E-01 -.155E-01 -.149E-01
   -.474E+01 -.602E+01 -.401E+02   0.427E+01 0.620E+01 0.399E+02   0.476E+00 -.175E+00 0.256E+00   0.139E-01 0.236E-02 0.164E-01
   0.163E+02 -.131E+02 -.133E+02   -.179E+02 0.140E+02 0.142E+02   0.156E+01 -.101E+01 -.996E+00   0.159E-01 -.646E-02 -.474E-02
   0.470E+01 -.146E+02 -.249E+02   -.384E+01 0.135E+02 0.244E+02   -.881E+00 0.108E+01 0.424E+00   -.134E-02 0.526E-02 -.298E-02
   0.313E+02 0.186E+02 0.301E+02   -.312E+02 -.190E+02 -.305E+02   -.687E-01 0.356E+00 0.388E+00   0.620E-03 -.897E-02 -.123E-01
   0.742E+01 0.335E+02 0.173E+01   -.725E+01 -.333E+02 -.214E+01   -.163E+00 -.987E-01 0.405E+00   0.908E-02 -.197E-01 0.649E-03
   0.378E+01 -.348E+01 0.514E+02   -.330E+01 0.291E+01 -.509E+02   -.485E+00 0.599E+00 -.575E+00   -.192E-01 0.223E-01 -.180E-01
   0.273E+00 0.779E+01 0.195E+02   0.454E+00 -.756E+01 -.194E+02   -.696E+00 -.235E+00 -.777E-01   -.108E-01 -.116E-01 -.819E-02
   -.286E+01 0.435E+02 -.755E+00   0.325E+01 -.431E+02 0.268E+00   -.399E+00 -.433E+00 0.514E+00   -.173E-01 -.153E-01 0.210E-01
   -.376E+01 0.109E+02 -.302E+02   0.369E+01 -.993E+01 0.303E+02   0.887E-01 -.110E+01 -.453E-01   -.449E-02 -.259E-02 0.141E-01
   0.141E+02 -.249E+02 -.157E+02   -.132E+02 0.244E+02 0.147E+02   -.899E+00 0.424E+00 0.107E+01   -.291E-02 -.990E-03 0.401E-02
   0.256E+02 -.180E+02 0.439E+01   -.262E+02 0.173E+02 -.496E+01   0.630E+00 0.634E+00 0.590E+00   0.106E-01 0.151E-01 0.658E-02
   -.134E+02 -.267E+02 -.335E+02   0.147E+02 0.273E+02 0.340E+02   -.123E+01 -.652E+00 -.566E+00   -.185E-01 -.218E-02 0.212E-03
   -.206E+02 -.777E+01 0.178E+02   0.205E+02 0.761E+01 -.184E+02   0.123E+00 0.172E+00 0.521E+00   0.142E-01 -.166E-01 0.294E-02
   0.256E+02 0.682E+01 0.146E+02   -.257E+02 -.649E+01 -.142E+02   0.115E+00 -.346E+00 -.476E+00   -.882E-02 -.220E-02 -.407E-02
   0.121E+02 0.811E+01 0.297E+02   -.120E+02 -.857E+01 -.295E+02   -.139E+00 0.462E+00 -.954E-01   0.943E-02 0.848E-03 -.184E-01
   -.195E+02 0.149E+02 -.801E+01   0.195E+02 -.156E+02 0.794E+01   -.364E-01 0.644E+00 0.110E+00   0.121E-01 0.529E-02 -.185E-01
 -----------------------------------------------------------------------------------------------
   -.336E+00 -.180E-01 -.154E+00   0.220E-12 -.711E-14 0.497E-13   0.338E+00 0.121E-01 0.148E+00   -.234E-02 0.531E-02 0.602E-02
 
 
 POSITION                                       TOTAL-FORCE (eV/Angst)
 -----------------------------------------------------------------------------------
      5.05090      5.78372      5.75045         0.018838      0.047343      0.012344
      4.66633      6.28667      2.14625        -0.004790     -0.027964     -0.017420
      2.80594      6.08550      4.05139        -0.033490      0.025448     -0.014125
      4.76187      3.84274      3.96024         0.031213      0.025839     -0.006148
      2.79032      6.42301     -0.51454        -0.004618      0.004951     -0.001954
      8.87582      5.92815      1.52232         0.033239     -0.005414      0.009245
      9.60738      7.84803      3.46465        -0.017782      0.069397     -0.056303
      2.83757      3.96414      6.13615        -0.005702     -0.032126      0.020705
      9.16648      5.55165      5.66779        -0.045306     -0.033327      0.002147
      2.71976     -0.46418      6.50783        -0.013216     -0.022075     -0.017820
      3.78719      8.61640      0.85585         0.004893     -0.007441     -0.045107
      6.27538      6.89303      0.06999        -0.023813      0.052181      0.043149
      7.13269      6.30662      3.91718         0.024703      0.034399      0.009336
      8.85625      1.48000      6.02048         0.021445      0.005636      0.042656
      7.92778      8.75884      5.42512        -0.003740      0.012854      0.054637
      4.60154      1.84063      1.94613        -0.011856     -0.015187     -0.009575
      4.63637      1.99019      6.43854         0.018229      0.001157     -0.010183
      9.27481      7.44502      7.55567         0.030597     -0.035293     -0.034226
      8.21397      8.58187      1.28764        -0.021640      0.017520     -0.042008
      6.60395      7.22399      7.28694         0.027145     -0.039862     -0.008963
      6.06009      8.68023      2.96143         0.014711      0.018043     -0.009889
      2.68618      3.95758      2.02218        -0.022851      0.049609     -0.038710
      3.77074      0.74725      8.78387         0.020235     -0.020706     -0.025965
      2.67821      1.87923      4.07681        -0.022033      0.007702      0.048476
      9.47363      3.45167      7.92510         0.012348     -0.083948      0.028197
      8.20599      1.18587      8.68239         0.007156     -0.034805      0.012472
      7.02456      3.87519      6.39011         0.022257      0.032369      0.033476
      8.42415      1.67258      1.76277        -0.017524     -0.023825     -0.022094
      6.64177      1.91070      4.40682         0.000282     -0.010287     -0.011363
      8.79247      3.61319      3.77216         0.007302     -0.017730     -0.032057
      6.07080      2.85427      8.80492         0.000484      0.005962      0.061829
      6.68694      4.27742      2.02853        -0.046719     -0.000420      0.025240
 -----------------------------------------------------------------------------------
    total drift:                                0.000114     -0.000574      0.000411


--------------------------------------------------------------------------------------------------------



  FREE ENERGIE OF THE ION-ELECTRON SYSTEM (eV)
  ---------------------------------------------------
  free  energy   TOTEN  =       -88.79099344 eV

  energy  without entropy=      -88.79825993  energy(sigma->0) =      -88.79341561
 


--------------------------------------------------------------------------------------------------------


    POTLOK:  cpu time    0.0919: real time    0.0919


--------------------------------------------------------------------------------------------------------




--------------------------------------------------------------------------------------------------------


    WAVPRE:  cpu time    0.0299: real time    0.0300
 FEWALD executed in parallel
    FEWALD:  cpu time    0.0014: real time    0.0015
    GENKIN:  cpu time    0.0014: real time    0.0014
    ORTHCH:  cpu time    0.0731: real time    0.0730
     LOOP+:  cpu time   12.0424: real time   14.6681


----------------------------------------- Iteration    2(   1)  ---------------------------------------


    POTLOK:  cpu time    0.0779: real time    0.0779
    SETDIJ:  cpu time    0.0111: real time    0.0111
     EDDAV:  cpu time    0.8294: real time    0.8291
       DOS:  cpu time    0.0009: real time    0.0009
    CHARGE:  cpu time    0.0560: real time    0.0560
    MIXING:  cpu time    0.0020: real time    0.0020
    --------------------------------------------
      LOOP:  cpu time    0.9782: real time    1.0026

 eigenvalue-minimisations  :   422
 total energy-change (2. order) :-0.4557375E-01  (-0.2033291E+00)
 number of electron     351.9999990 magnetization 
 augmentation part      168.7087658 magnetization 

 Broyden mixing:
  rms(total) = 0.13607E+00    rms(broyden)= 0.13605E+00
  rms(prec ) = 0.18769E+00
  weight for this iteration     100.00

 Free energy of the ion-electron system (eV)
  ---------------------------------------------------
  alpha Z        PSCENC =      1484.01610031
  Ewald energy   TEWEN  =    -30292.82470984
  -Hartree energ DENC   =     -6639.89756193
  -exchange      EXHF   =         0.00000000
  -V(xc)+E(xc)   XCENC  =      -352.47737349
  PAW double counting   =     35483.80121850   -34085.46330552
  entropy T*S    EENTRO =         0.00762599
  eigenvalues    EBANDS =      1121.73175395
  atomic energy  EATOM  =     33192.26970804
  Solvation  Ediel_sol  =         0.00000000
  ---------------------------------------------------
  free energy    TOTEN  =       -88.83654400 eV

  energy without entropy =      -88.84416999  energy(sigma->0) =      -88.83908599


--------------------------------------------------------------------------------------------------------




----------------------------------------- Iteration    2(   2)  ---------------------------------------


    POTLOK:  cpu time    0.0781: real time    0.0780
    SETDIJ:  cpu time    0.0111: real time    0.0111
     EDDAV:  cpu time    0.8283: real time    0.8278
       DOS:  cpu time    0.0010: real time    0.0010
    CHARGE:  cpu time    0.0564: real time    0.0563
    MIXING:  cpu time    0.0021: real time    0.0021
    --------------------------------------------
      LOOP:  cpu time    0.9776: real time    1.0341

 eigenvalue-minimisations  :   422
 total energy-change (2. order) : 0.3944193E-01  (-0.1525521E-01)
 number of electron     351.9999990 magnetization 
 augmentation part      168.3656938 magnetization 

 Broyden mixing:
  rms(total) = 0.44135E-01    rms(broyden)= 0.44132E-01
  rms(prec ) = 0.48799E-01
  weight for this iteration     100.00

 eigenvalues of (default mixing * dielectric matrix)
  average eigenvalue GAMMA=   0.8991
  0.8991

 Free energy of the ion-electron system (eV)
  ---------------------------------------------------
  alpha Z        PSCENC =      1484.01610031
  Ewald energy   TEWEN  =    -30292.82470984
  -Hartree energ DENC   =     -6659.09977411
  -exchange      EXHF   =         0.00000000
  -V(xc)+E(xc)   XCENC  =      -351.81668797
  PAW double counting   =     35451.99719386   -34053.62296570
  entropy T*S    EENTRO =         0.00735458
  eigenvalues    EBANDS =      1140.27667877
  atomic energy  EATOM  =     33192.26970804
  Solvation  Ediel_sol  =         0.00000000
  ---------------------------------------------------
  free energy    TOTEN  =       -88.79710207 eV

  energy without entropy =      -88.80445665  energy(sigma->0) =      -88.79955360


--------------------------------------------------------------------------------------------------------




----------------------------------------- Iteration    2(   3)  ---------------------------------------


    POTLOK:  cpu time    0.0776: real time    0.0779
    SETDIJ:  cpu time    0.0111: real time    0.0111
     EDDAV:  cpu time    0.8443: real time    0.8436
       DOS:  cpu time    0.0010: real time    0.0010
    CHARGE:  cpu time    0.0563: real time    0.0564
    MIXING:  cpu time    0.0022: real time    0.0022
    --------------------------------------------
      LOOP:  cpu time    0.9931: real time    1.0754

 eigenvalue-minimisations  :   433
 total energy-change (2. order) : 0.1375221E-02  (-0.3355813E-03)
 number of electron     351.9999990 magnetization 
 augmentation part      168.3221390 magnetization 

 Broyden mixing:
  rms(total) = 0.30057E-01    rms(broyden)= 0.30057E-01
  rms(prec ) = 0.31401E-01
  weight for this iteration     100.00

 eigenvalues of (default mixing * dielectric matrix)
  average eigenvalue GAMMA=   1.5551
  1.1448  1.9654

 Free energy of the ion-electron system (eV)
  ---------------------------------------------------
  alpha Z        PSCENC =      1484.01610031
  Ewald energy   TEWEN  =    -30292.82470984
  -Hartree energ DENC   =     -6661.06911375
  -exchange      EXHF   =         0.00000000
  -V(xc)+E(xc)   XCENC  =      -351.74935342
  PAW double counting   =     35463.55202905   -34064.92064212
  entropy T*S    EENTRO =         0.00730228
  eigenvalues    EBANDS =      1141.92295262
  atomic energy  EATOM  =     33192.26970804
  Solvation  Ediel_sol  =         0.00000000
  ---------------------------------------------------
  free energy    TOTEN  =       -88.79572685 eV

  energy without entropy =      -88.80302912  energy(sigma->0) =      -88.79816094


--------------------------------------------------------------------------------------------------------




----------------------------------------- Iteration    2(   4)  ---------------------------------------


    POTLOK:  cpu time    0.0779: real time    0.0778
    SETDIJ:  cpu time    0.0111: real time    0.0111
     EDDAV:  cpu time    0.8323: real time    0.8320
       DOS:  cpu time    0.0010: real time    0.0010
    CHARGE:  cpu time    0.0564: real time    0.0563
    MIXING:  cpu time    0.0023: real time    0.0023
    --------------------------------------------
      LOOP:  cpu time    0.9816: real time    1.0736

 eigenvalue-minimisations  :   425
 total energy-change (2. order) : 0.6240708E-03  (-0.6145509E-04)
 number of electron     351.9999990 magnetization 
 augmentation part      168.3237074 magnetization 

 Broyden mixing:
  rms(total) = 0.40185E-02    rms(broyden)= 0.40183E-02
  rms(prec ) = 0.45459E-02
  weight for this iteration     100.00

 eigenvalues of (default mixing * dielectric matrix)
  average eigenvalue GAMMA=   1.4534
  2.3112  1.0245  1.0245

 Free energy of the ion-electron system (eV)
  ---------------------------------------------------
  alpha Z        PSCENC =      1484.01610031
  Ewald energy   TEWEN  =    -30292.82470984
  -Hartree energ DENC   =     -6661.06478510
  -exchange      EXHF   =         0.00000000
  -V(xc)+E(xc)   XCENC  =      -351.74992934
  PAW double counting   =     35457.32656647   -34058.43140832
  entropy T*S    EENTRO =         0.00727273
  eigenvalues    EBANDS =      1141.65608228
  atomic energy  EATOM  =     33192.26970804
  Solvation  Ediel_sol  =         0.00000000
[...]
     96       3.4121      2.00000
     97       3.4211      2.00000
     98       3.4442      2.00000
     99       3.4684      2.00000
    100       3.4789      2.00000
    101       3.4979      2.00000
    102       3.5118      2.00000
    103       3.5259      2.00000
    104       3.5389      2.00000
    105       3.5487      2.00000
    106       3.5808      2.00000
    107       3.6031      2.00000
    108       3.6236      2.00000
    109       3.6504      2.00000
    110       3.6534      2.00000
    111       3.6603      2.00000
    112       3.7048      2.00000
    113       3.7154      2.00000
    114       3.7297      2.00000
    115       3.7444      2.00000
    116       3.7757      2.00000
    117       3.7923      2.00000
    118       3.8201      2.00000
    119       3.8501      2.00000
    120       3.8685      2.00000
    121       3.8829      2.00000
    122       3.8952      2.00000
    123       3.9056      2.00000
    124       3.9241      2.00000
    125       3.9279      2.00000
    126       3.9471      2.00000
    127       3.9613      2.00000
    128       3.9683      2.00000
    129       3.9934      2.00000
    130       4.0067      2.00000
    131       4.0334      2.00000
    132       4.0408      2.00000
    133       4.0472      2.00000
    134       4.0848      2.00000
    135       4.1022      2.00000
    136       4.1277      2.00000
    137       4.1480      2.00000
    138       4.1676      2.00000
    139       4.1764      2.00000
    140       4.1995      2.00000
    141       4.2210      2.00000
    142       4.2220      2.00000
    143       4.2558      2.00000
    144       4.2673      2.00000
    145       4.3094      2.00000
    146       4.3206      2.00000
    147       4.3469      2.00000
    148       4.3704      2.00000
    149       4.3845      2.00000
    150       4.4039      2.00000
    151       4.4188      2.00000
    152       4.4321      2.00000
    153       4.4562      2.00000
    154       4.4621      2.00000
    155       4.4722      2.00000
    156       4.4931      2.00000
    157       4.5180      2.00000
    158       4.5429      2.00000
    159       4.5777      2.00000
    160       4.6070      2.00000
    161       4.6711      2.00000
    162       4.7329      2.00000
    163       4.7862      2.00000
    164       4.8044      2.00000
    165       4.8233      2.00000
    166       4.8315      2.00000
    167       4.9316      2.00000
    168       5.0410      2.00000
    169       5.0572      2.00000
    170       5.2099      2.00000
    171       5.2148      2.00000
    172       5.2509      2.00000
    173       5.2600      2.00000
    174       7.1000      2.00342
    175       7.1094      2.00505
    176       7.2587      1.99154
    177       7.8656     -0.00000
    178       8.6291     -0.00000
    179       8.7259     -0.00000
    180       9.1820     -0.00000
    181       9.4785     -0.00000
    182       9.6335     -0.00000
    183       9.8176     -0.00000
    184       9.9445     -0.00000
    185      10.1721      0.00000
    186      10.3492      0.00000
    187      10.4593      0.00000
    188      10.5671      0.00000
    189      10.6298      0.00000
    190      10.8134      0.00000
    191      10.8731      0.00000
    192      10.9038      0.00000
    193      11.0478      0.00000
    194      11.2118      0.00000
    195      11.3385      0.00000
    196      11.4164      0.00000
    197      11.4451      0.00000
    198      11.5136      0.00000
    199      11.5371      0.00000
    200      11.6759      0.00000
    201      11.7815      0.00000
    202      12.0615      0.00000
    203      12.0909      0.00000
    204      13.1881      0.00000
    205      13.3126      0.00000
    206      13.4028      0.00000
    207      13.5777      0.00000
    208      13.7363      0.00000
    209      13.8311      0.00000
    210      13.9854      0.00000
    211      14.1482      0.00000


--------------------------------------------------------------------------------------------------------


 soft charge-density along one line, spin component           1
         0         1         2         3         4         5         6         7         8         9
 total charge-density along one line
 
 pseudopotential strength for first ion, spin component:           1
 -4.573  -0.008  -0.002  -0.007  -0.002  -4.783  -0.008  -0.002
 -0.008  -4.584  -0.006  -0.007   0.012  -0.008  -4.794  -0.006
 -0.002  -0.006  -4.570   0.002  -0.007  -0.002  -0.006  -4.780
 -0.007  -0.007   0.002  -4.574  -0.001  -0.007  -0.006   0.002
 -0.002   0.012  -0.007  -0.001  -4.565  -0.002   0.012  -0.007
 -4.783  -0.008  -0.002  -0.007  -0.002  -4.960  -0.008  -0.002
 -0.008  -4.794  -0.006  -0.006   0.012  -0.008  -4.970  -0.006
 -0.002  -0.006  -4.780   0.002  -0.007  -0.002  -0.006  -4.957
 -0.007  -0.006   0.002  -4.784  -0.001  -0.007  -0.006   0.002
 -0.002   0.012  -0.007  -0.001  -4.775  -0.002   0.011  -0.006
  0.001   0.004   0.001   0.001  -0.002   0.001   0.004   0.001
  0.001   0.006   0.002   0.002  -0.004   0.001   0.006   0.002
  0.006  -0.002  -0.001   0.001   0.001   0.006  -0.002  -0.001
  0.001  -0.002  -0.000   0.006   0.001   0.001  -0.002  -0.000
 -0.000   0.001  -0.004  -0.001   0.007  -0.000   0.001  -0.004
  0.007  -0.003  -0.000   0.001   0.001   0.007  -0.003  -0.000
  0.001  -0.002  -0.001   0.007   0.001   0.001  -0.002  -0.001
 -0.000   0.001  -0.005  -0.001   0.008  -0.000   0.001  -0.004
 total augmentation occupancy for first ion, spin component:           1
  3.380   0.105  -0.084   0.130  -0.014  -1.423  -0.178   0.038  -0.128  -0.022  -0.096   0.027  -0.043  -0.019  -0.004   0.005
  0.105   3.316   0.028   0.082  -0.021  -0.178  -1.390  -0.053  -0.150   0.080  -0.272   0.067  -0.040  -0.020  -0.037  -0.000
 -0.084   0.028   3.408   0.077   0.007   0.038  -0.053  -1.345  -0.029  -0.029  -0.070   0.010  -0.025  -0.027   0.015  -0.001
  0.130   0.082   0.077   3.350   0.086  -0.128  -0.150  -0.029  -1.413  -0.070  -0.145   0.042  -0.016  -0.045  -0.013   0.001
 -0.014  -0.021   0.007   0.086   3.369  -0.022   0.080  -0.029  -0.070  -1.304   0.126  -0.022   0.015   0.035  -0.020  -0.001
 -1.423  -0.178   0.038  -0.128  -0.022   1.415   0.243  -0.001   0.131   0.052   0.098  -0.025   0.027   0.024   0.005   0.000
 -0.178  -1.390  -0.053  -0.150   0.080   0.243   1.410   0.075   0.211  -0.131   0.239  -0.050   0.024   0.005   0.038   0.000
  0.038  -0.053  -1.345  -0.029  -0.029  -0.001   0.075   1.248  -0.011   0.049   0.053  -0.004   0.012   0.033  -0.011   0.001
 -0.128  -0.150  -0.029  -1.413  -0.070   0.131   0.211  -0.011   1.423   0.060   0.147  -0.039   0.021   0.031   0.011  -0.001
 -0.022   0.080  -0.029  -0.070  -1.304   0.052  -0.131   0.049   0.060   1.207  -0.095   0.010  -0.013  -0.023   0.017   0.001
 -0.096  -0.272  -0.070  -0.145   0.126   0.098   0.239   0.053   0.147  -0.095   2.249  -0.403  -0.005   0.003  -0.029   0.000
  0.027   0.067   0.010   0.042  -0.022  -0.025  -0.050  -0.004  -0.039   0.010  -0.403   0.084   0.001  -0.002  -0.002  -0.000
 -0.043  -0.040  -0.025  -0.016   0.015   0.027   0.024   0.012   0.021  -0.013  -0.005   0.001   0.169   0.008   0.006  -0.010
 -0.019  -0.020  -0.027  -0.045   0.035   0.024   0.005   0.033   0.031  -0.023   0.003  -0.002   0.008   0.171   0.007  -0.001
 -0.004  -0.037   0.015  -0.013  -0.020   0.005   0.038  -0.011   0.011   0.017  -0.029  -0.002   0.006   0.007   0.176  -0.000
  0.005  -0.000  -0.001   0.001  -0.001   0.000   0.000   0.001  -0.001   0.001   0.000  -0.000  -0.010  -0.001  -0.000   0.001
  0.001  -0.001   0.003   0.005  -0.000  -0.001   0.001  -0.003  -0.000   0.000  -0.000   0.000  -0.001  -0.010  -0.001   0.000
  0.000   0.002  -0.004   0.001   0.006   0.000  -0.002   0.001   0.000  -0.001   0.003  -0.001  -0.000  -0.001  -0.010   0.000


------------------------ aborting loop because EDIFF is reached ----------------------------------------


    CHARGE:  cpu time    0.0548: real time    0.0549
    FORLOC:  cpu time    0.0214: real time    0.0213
    FORNL :  cpu time    0.8662: real time    0.8657
    STRESS:  cpu time    0.6808: real time    0.6803
    FORCOR:  cpu time    0.0996: real time    0.0997
    FORHAR:  cpu time    0.0378: real time    0.0378
    MIXING:  cpu time    0.0026: real time    0.0026
    OFIELD:  cpu time    0.0000: real time    0.0000

  FORCE on cell =-STRESS in cart. coord.  units (eV):
  Direction    XX          YY          ZZ          XY          YZ          ZX
  --------------------------------------------------------------------------------------
  Alpha Z  1482.13787  1482.13787  1482.13787
  Ewald  -10280.10010-10001.88783 -9998.23411   -89.25336   158.82173   -84.81796
  Hartree  2130.55230  2268.32486  2268.84544   -37.89812    69.85865   -38.17065
  E(xc)   -1859.98383 -1859.43908 -1859.41908    -0.26795     0.35574    -0.23731
  Local    1479.39495  1082.02233  1078.13119   118.38974  -214.91667   115.55696
  n-local  -275.11136  -278.44734  -278.41604     0.99886    -1.73751     0.79048
  augment  2949.41648  2945.20746  2945.09410     2.52718    -3.49423     2.13045
  Kinetic  4372.73564  4361.12086  4361.11220     5.67250    -9.06583     4.76526
  Fock        0.00000     0.00000     0.00000     0.00000     0.00000     0.00000
  -------------------------------------------------------------------------------------
  Total      -0.95805    -0.96088    -0.74845     0.16886    -0.17812     0.01724
  in kB      -2.61199    -2.61972    -2.04054     0.46038    -0.48562     0.04699
  external pressure =       -2.42 kB  Pullay stress =        0.00 kB


 VOLUME and BASIS-vectors are now :
 -----------------------------------------------------------------------------
  energy-cutoff  :      400.00
  volume of cell :      587.66
      direct lattice vectors                 reciprocal lattice vectors
     8.466931764  1.653931823  1.679380628     0.129080551 -0.027699269 -0.028048148
     1.569719577  8.834988801 -1.501078187    -0.029179386  0.122815211  0.026159573
     1.598514175 -1.503387596  8.841219451    -0.029472848  0.026113236  0.122875706

  length of vectors
     8.788898865  9.098037282  9.109477659     0.134965687  0.128916004  0.129030961


 FORCES acting on ions
    electron-ion (+dipol)            ewald-force                    non-local-force                 convergence-correction
 -----------------------------------------------------------------------------------------------
   -.516E+02 -.131E+02 -.209E+01   0.500E+02 0.130E+02 0.190E+01   0.157E+01 0.132E+00 0.186E+00   0.264E-03 -.249E-02 -.559E-03
   -.139E+01 -.343E+02 -.532E+01   0.113E+01 0.338E+02 0.564E+01   0.246E+00 0.434E+00 -.333E+00   0.329E-03 0.145E-02 0.135E-02
   -.239E+02 -.407E+02 0.145E+02   0.236E+02 0.411E+02 -.141E+02   0.222E+00 -.329E+00 -.390E+00   0.739E-03 -.139E-02 0.108E-02
   -.616E+02 -.922E+00 -.267E+01   0.612E+02 0.393E+00 0.220E+01   0.423E+00 0.547E+00 0.469E+00   -.167E-02 -.770E-03 0.956E-03
   -.287E+02 0.179E+02 -.226E+02   0.291E+02 -.177E+02 0.229E+02   -.373E+00 -.230E+00 -.330E+00   -.784E-03 -.373E-03 0.144E-03
   -.149E+02 0.355E+02 -.592E+01   0.152E+02 -.355E+02 0.698E+01   -.232E+00 -.513E-01 -.106E+01   -.267E-02 0.358E-03 -.257E-03
   -.110E+02 -.231E+02 0.167E+02   0.111E+02 0.232E+02 -.158E+02   -.144E+00 -.741E-01 -.977E+00   -.178E-03 -.182E-02 0.263E-02
   -.253E+02 0.120E+02 -.437E+02   0.252E+02 -.116E+02 0.441E+02   0.173E+00 -.412E+00 -.308E+00   0.201E-03 0.125E-02 -.662E-03
   0.720E+02 0.249E+01 0.108E+02   -.718E+02 -.219E+01 -.104E+02   -.229E+00 -.338E+00 -.407E+00   0.985E-03 0.145E-02 0.715E-04
   -.367E+02 -.158E+02 0.964E+01   0.370E+02 0.163E+02 -.942E+01   -.349E+00 -.616E+00 -.231E+00   0.100E-02 0.717E-03 0.879E-04
   0.101E+02 0.159E+02 0.858E+01   -.924E+01 -.160E+02 -.837E+01   -.870E+00 0.103E+00 -.221E+00   -.732E-03 0.934E-03 0.133E-02
   0.394E+02 0.234E+02 -.205E+02   -.402E+02 -.240E+02 0.204E+02   0.846E+00 0.632E+00 0.123E+00   0.189E-02 -.322E-02 -.842E-03
   0.255E+02 0.636E+01 -.184E+02   -.259E+02 -.689E+01 0.177E+02   0.427E+00 0.566E+00 0.687E+00   -.800E-03 -.181E-02 -.476E-04
   -.842E+01 -.582E+00 0.337E+02   0.863E+01 0.173E+01 -.338E+02   -.201E+00 -.114E+01 0.147E+00   -.739E-03 -.223E-03 -.203E-02
   0.509E+02 -.206E+02 0.142E+02   -.516E+02 0.205E+02 -.151E+02   0.694E+00 0.125E+00 0.884E+00   0.922E-03 -.588E-03 -.283E-02
   -.107E+02 0.106E+02 0.135E+02   0.105E+02 -.109E+02 -.139E+02   0.148E+00 0.333E+00 0.426E+00   0.964E-03 0.144E-03 -.283E-03
   -.512E+01 -.692E+01 -.398E+02   0.467E+01 0.710E+01 0.395E+02   0.474E+00 -.172E+00 0.274E+00   0.909E-03 0.111E-03 0.629E-03
   0.161E+02 -.123E+02 -.132E+02   -.176E+02 0.133E+02 0.142E+02   0.155E+01 -.101E+01 -.988E+00   -.979E-03 0.655E-03 0.573E-03
   0.446E+01 -.138E+02 -.253E+02   -.360E+01 0.127E+02 0.249E+02   -.874E+00 0.107E+01 0.432E+00   0.215E-03 -.165E-03 0.127E-02
   0.314E+02 0.177E+02 0.298E+02   -.313E+02 -.181E+02 -.302E+02   -.687E-01 0.371E+00 0.393E+00   -.113E-02 0.124E-02 -.504E-03
   0.812E+01 0.333E+02 0.136E+01   -.793E+01 -.332E+02 -.177E+01   -.182E+00 -.109E+00 0.411E+00   0.188E-03 -.108E-02 0.286E-03
   0.458E+01 -.195E+01 0.488E+02   -.413E+01 0.141E+01 -.483E+02   -.485E+00 0.577E+00 -.545E+00   -.224E-03 -.155E-02 0.143E-02
   0.565E+00 0.760E+01 0.189E+02   0.159E+00 -.739E+01 -.188E+02   -.700E+00 -.242E+00 -.816E-01   -.137E-02 0.309E-03 0.119E-02
   -.350E+01 0.422E+02 0.118E+01   0.387E+01 -.418E+02 -.164E+01   -.386E+00 -.441E+00 0.478E+00   0.323E-03 -.620E-05 -.149E-02
   -.298E+01 0.834E+01 -.310E+02   0.290E+01 -.733E+01 0.311E+02   0.662E-01 -.106E+01 -.252E-01   -.760E-03 0.409E-02 -.126E-03
   0.149E+02 -.257E+02 -.164E+02   -.140E+02 0.253E+02 0.153E+02   -.915E+00 0.426E+00 0.108E+01   -.874E-03 0.174E-02 -.419E-03
   0.265E+02 -.164E+02 0.473E+01   -.271E+02 0.158E+02 -.529E+01   0.614E+00 0.621E+00 0.598E+00   -.330E-03 -.144E-02 -.150E-02
   -.138E+02 -.275E+02 -.339E+02   0.150E+02 0.281E+02 0.345E+02   -.122E+01 -.644E+00 -.568E+00   0.647E-03 0.132E-02 0.162E-02
   -.208E+02 -.893E+01 0.165E+02   0.207E+02 0.876E+01 -.171E+02   0.137E+00 0.182E+00 0.534E+00   0.558E-03 -.269E-04 0.793E-03
   0.252E+02 0.650E+01 0.141E+02   -.253E+02 -.617E+01 -.137E+02   0.106E+00 -.350E+00 -.477E+00   -.294E-03 0.825E-03 0.122E-02
   0.116E+02 0.840E+01 0.317E+02   -.115E+02 -.886E+01 -.316E+02   -.131E+00 0.461E+00 -.139E+00   0.329E-04 -.456E-03 -.292E-02
   -.213E+02 0.145E+02 -.801E+01   0.213E+02 -.151E+02 0.793E+01   0.246E-02 0.649E+00 0.980E-01   0.222E-02 0.548E-03 -.164E-02
 -----------------------------------------------------------------------------------------------
   -.338E+00 -.193E-01 -.145E+00   0.593E-12 -.711E-14 0.000E+00   0.339E+00 0.193E-01 0.145E+00   -.114E-02 -.271E-03 0.554E-03
 
 
 POSITION                                       TOTAL-FORCE (eV/Angst)
 -----------------------------------------------------------------------------------
      5.05725      5.78995      5.76002        -0.005424      0.019649     -0.007160
      4.66850      6.29071      2.14738        -0.009106     -0.010810     -0.005045
      2.80537      6.09281      4.05500        -0.015663      0.009882     -0.023734
      4.76885      3.84568      3.96657         0.005801      0.018312      0.005587
      2.78919      6.43205     -0.51776         0.002356     -0.003177     -0.015844
      8.88466      5.93139      1.52668         0.024245     -0.004469      0.004819
      9.61343      7.85793      3.46691        -0.017398      0.061957     -0.040872
      2.84115      3.96298      6.14682         0.000125     -0.024967      0.009559
      9.17253      5.54984      5.67881        -0.023361     -0.035647     -0.010481
      2.72518     -0.47157      6.51892        -0.007299     -0.020991     -0.014314
      3.78729      8.62663      0.85113        -0.001195      0.001044     -0.014367
      6.27643      6.90394      0.07242         0.001394      0.027242      0.020163
      7.14027      6.31274      3.92434         0.021353      0.037638      0.002370
      8.86890      1.47462      6.03708         0.010555      0.004690      0.016999
      7.93371      8.76593      5.43690        -0.002695      0.015546      0.041534
      4.60534      1.83890      1.94999        -0.020392     -0.007426     -0.002843
      4.64458      1.98721      6.44964         0.018988      0.003577     -0.003998
      9.28625      7.44483      7.56621         0.023555     -0.033021     -0.019584
      8.21685      8.59125      1.28618        -0.012708      0.001095     -0.036372
      6.61247      7.22468      7.29753         0.035101     -0.019110      0.003239
      6.06419      8.68995      2.96375         0.002689      0.013309     -0.004589
      2.68627      3.96454      2.02192        -0.031041      0.032373     -0.007582
      3.78010      0.73995      8.79798         0.023297     -0.023767     -0.024887
      2.68050      1.87892      4.08717        -0.009349      0.008456      0.018490
      9.48625      3.44167      7.94299        -0.008769     -0.036862      0.051112
      8.21856      1.17603      8.70107        -0.005859     -0.028429      0.027406
      7.03442      3.87607      6.40433         0.005872      0.017809      0.037326
      8.43134      1.66813      1.76756        -0.013154     -0.019984     -0.021750
      6.64969      1.90694      4.41562         0.008542      0.003709      0.003699
      8.80180      3.61078      3.77862         0.005749     -0.017936     -0.032193
      6.07999      2.85085      8.82516         0.013319      0.006310      0.028807
      6.68917      4.27933      2.03463        -0.019531      0.003996      0.014507
 -----------------------------------------------------------------------------------
    total drift:                                0.000130     -0.000208      0.000685


--------------------------------------------------------------------------------------------------------



  FREE ENERGIE OF THE ION-ELECTRON SYSTEM (eV)
  ---------------------------------------------------
  free  energy   TOTEN  =       -88.79549823 eV

  energy  without entropy=      -88.80276865  energy(sigma->0) =      -88.79792171
 
 d Force = 0.1131059E-02[ 0.103E-02, 0.123E-02]  d Energy = 0.4179455E-03 0.713E-03
 d Force = 0.8854286E-01[ 0.822E-01, 0.949E-01]  d Ewald  =-0.1271690E+02 0.128E+02


--------------------------------------------------------------------------------------------------------


    POTLOK:  cpu time    0.0898: real time    0.0897


--------------------------------------------------------------------------------------------------------




--------------------------------------------------------------------------------------------------------


  
 reached required accuracy - stopping structural energy minimisation
     LOOP+:  cpu time    6.1522: real time    7.6632
    4ORBIT:  cpu time    0.0000: real time    0.0000

 total amount of memory used by VASP on root node    44326. kBytes
========================================================================

   base      :      30000. kBytes
   nonl-proj :        533. kBytes
   fftplans  :       4282. kBytes
   grid      :       7107. kBytes
   one-center:         31. kBytes
   wavefun   :       2373. kBytes
 
  
  
 General timing and accounting informations for this job:
 ========================================================
  
                  Total CPU time used (sec):       25.643
                            User time (sec):       25.166
                          System time (sec):        0.477
                         Elapsed time (sec):       31.317
  
                   Maximum memory used (kb):       71772.
                   Average memory used (kb):           0.
  
                          Minor page faults:        38813
                          Major page faults:           10
                 Voluntary context switches:          784
