 vasp.5.4.1 24Jun15 (build Apr 15 2016 23:17:53) complex                        
  
 executed on           IFC91_ompi date 2016.10.26  07:24:49
 running on    4 total cores
 distrk:  each k-point on    4 cores,    1 groups
 distr:  one band on NCORES_PER_BAND=   4 cores,    1 groups


--------------------------------------------------------------------------------------------------------


 INCAR:
 POTCAR:    PAW_PBE Ag 02Apr2005                  
 POTCAR:    PAW_PBE Pt 04Feb2005                  
 POTCAR:    PAW_PBE Ag 02Apr2005                  
   VRHFIN =Ag : s1 d10                                                          
   LEXCH  = PE                                                                  
   EATOM  =  1037.2675 eV,   76.2370 Ry                                         
                                                                                
   TITEL  = PAW_PBE Ag 02Apr2005                                                
   LULTRA =        F    use ultrasoft PP ?                                      
   IUNSCR =        1    unscreen: 0-lin 1-nonlin 2-no                           
   RPACOR =    2.000    partial core radius                                     
   POMASS =  107.868; ZVAL   =   11.000    mass and valenz                      
   RCORE  =    2.500    outmost cutoff radius                                   
   RWIGS  =    2.840; RWIGS  =    1.503    wigner-seitz radius (au A)           
   ENMAX  =  249.844; ENMIN  =  187.383 eV                                      
   ICORE  =        3    local potential                                         
   LCOR   =        T    correct aug charges                                     
   LPAW   =        T    paw PP                                                  
   EAUG   =  412.496                                                            
   DEXC   =    0.000                                                            
   RMAX   =    2.560    core radius for proj-oper                               
   RAUG   =    1.300    factor for augmentation sphere                          
   RDEP   =    2.576    radius for radial grids                                 
   RDEPT  =    2.072    core radius for aug-charge                              
                                                                                
   Atomic configuration                                                         
   12 entries                                                                   
     n  l   j            E        occ.                                          
     1  0  0.50    -25324.9161   2.0000                                         
     2  0  0.50     -3728.5341   2.0000                                         
     2  1  1.50     -3344.0404   6.0000                                         
     3  0  0.50      -683.5581   2.0000                                         
     3  1  1.50      -557.3225   6.0000                                         
     3  2  2.50      -358.3853  10.0000                                         
     4  0  0.50       -95.0341   2.0000                                         
     4  1  1.50       -58.5511   6.0000                                         
     4  2  2.50        -7.4440  10.0000                                         
     5  0  0.50        -4.4045   1.0000                                         
     5  1  0.50        -1.3606   0.0000                                         
     4  3  2.50        -1.3606   0.0000                                         
   Description                                                                  
     l       E           TYP  RCUT    TYP  RCUT                                 
     2     -7.4439781     23  2.400                                             
     2     -8.8045607     23  2.400                                             
     0     -4.4044681     23  2.400                                             
     0      1.9520038     23  2.400                                             
     1     -1.3605826     23  2.500                                             
     1     27.2116520     23  2.500                                             
     3     -4.0817478     23  2.400                                             
  local pseudopotential read in
  partial core-charges read in
  partial kinetic energy density read in
  atomic valenz-charges read in
  non local Contribution for L=           2  read in
    real space projection operators read in
  non local Contribution for L=           2  read in
    real space projection operators read in
  non local Contribution for L=           0  read in
    real space projection operators read in
  non local Contribution for L=           0  read in
    real space projection operators read in
  non local Contribution for L=           1  read in
    real space projection operators read in
  non local Contribution for L=           1  read in
    real space projection operators read in
    PAW grid and wavefunctions read in
 
   number of l-projection  operators is LMAX  =           6
   number of lm-projection operators is LMMAX =          18
 
 POTCAR:    PAW_PBE Pt 04Feb2005                  
   VRHFIN =Pt: s1d9                                                             
   LEXCH  = PE                                                                  
   EATOM  =   729.1176 eV,   53.5886 Ry                                         
                                                                                
   TITEL  = PAW_PBE Pt 04Feb2005                                                
   LULTRA =        F    use ultrasoft PP ?                                      
   IUNSCR =        1    unscreen: 0-lin 1-nonlin 2-no                           
   RPACOR =    2.330    partial core radius                                     
   POMASS =  195.080; ZVAL   =   10.000    mass and valenz                      
   RCORE  =    2.600    outmost cutoff radius                                   
   RWIGS  =    2.750; RWIGS  =    1.455    wigner-seitz radius (au A)           
   ENMAX  =  230.283; ENMIN  =  172.712 eV                                      
   ICORE  =        3    local potential                                         
   LCOR   =        T    correct aug charges                                     
   LPAW   =        T    paw PP                                                  
   EAUG   =  358.966                                                            
   DEXC   =    0.000                                                            
   RMAX   =    2.658    core radius for proj-oper                               
   RAUG   =    1.300    factor for augmentation sphere                          
   RDEP   =    2.761    radius for radial grids                                 
   RDEPT  =    2.203    core radius for aug-charge                              
                                                                                
   Atomic configuration                                                         
   16 entries                                                                   
     n  l   j            E        occ.                                          
     1  0  0.50    -78401.1885   2.0000                                         
     2  0  0.50    -13770.7750   2.0000                                         
     2  1  1.50    -11931.0468   6.0000                                         
     3  0  0.50     -3234.7234   2.0000                                         
     3  1  1.50     -2699.2216   6.0000                                         
     3  2  2.50     -2119.5714  10.0000                                         
     4  0  0.50      -695.1528   2.0000                                         
     4  1  1.50      -519.6034   6.0000                                         
     4  2  2.50      -306.6786  10.0000                                         
     4  3  3.50       -70.1041  14.0000                                         
     5  0  0.50      -101.7747   2.0000                                         
     5  1  1.50       -55.9873   6.0000                                         
     5  2  2.50        -6.1423   9.0000                                         
     6  0  0.50        -5.6573   1.0000                                         
     6  1  1.50        -6.8029   0.0000                                         
     5  3  2.50        -1.3606   0.0000                                         
   Description                                                                  
     l       E           TYP  RCUT    TYP  RCUT                                 
     2     -6.1423404     23  2.500                                             
     2     -7.5029230     23  2.500                                             
     0     -5.6573207     23  2.500                                             
     0      0.7416693     23  2.500                                             
     1     -2.7211652     23  2.600                                             
     1     20.4087390     23  2.600                                             
     3     -1.3605826     23  2.500                                             
  local pseudopotential read in
  partial core-charges read in
  partial kinetic energy density read in
  atomic valenz-charges read in
  non local Contribution for L=           2  read in
    real space projection operators read in
  non local Contribution for L=           2  read in
    real space projection operators read in
  non local Contribution for L=           0  read in
    real space projection operators read in
  non local Contribution for L=           0  read in
    real space projection operators read in
  non local Contribution for L=           1  read in
    real space projection operators read in
  non local Contribution for L=           1  read in
    real space projection operators read in
    PAW grid and wavefunctions read in
 
   number of l-projection  operators is LMAX  =           6
   number of lm-projection operators is LMMAX =          18
 

 ----------------------------------------------------------------------------- 
|                                                                             |
|  ADVICE TO THIS USER RUNNING 'VASP/VAMP'   (HEAR YOUR MASTER'S VOICE ...):  |
|                                                                             |
|      You have a (more or less) 'large supercell' and for larger cells       |
|      it might be more efficient to use real space projection opertators     |
|      So try LREAL= Auto  in the INCAR   file.                               |
|      Mind: At the moment your POTCAR file does not contain real space       |
|       projectors, and has to be modified,  BUT if you                       |
|      want to do an extremely  accurate calculation you might also keep the  |
|      reciprocal projection scheme          (i.e. LREAL=.FALSE.)             |
|                                                                             |
 ----------------------------------------------------------------------------- 

  PAW_PBE Ag 02Apr2005                  :
 energy of atom  1       EATOM=-1037.2675
 kinetic energy error for atom=    0.0535 (will be added to EATOM!!)
  PAW_PBE Pt 04Feb2005                  :
 energy of atom  2       EATOM= -729.1176
 kinetic energy error for atom=    0.0416 (will be added to EATOM!!)
 
 
 POSCAR: Math                                    
  positions in cartesian coordinates
  No initial velocities read in
 exchange correlation table for  LEXCH =        8
   RHO(1)=    0.500       N(1)  =     2000
   RHO(2)=  100.500       N(2)  =     4000
 


--------------------------------------------------------------------------------------------------------


 ion  position               nearest neighbor table
   1  0.000  0.000  0.000-   3 2.83   6 2.83   7 2.83   8 2.83  12 2.83  20 2.83  21 2.83  22 2.83
                            26 2.83  28 2.83  29 2.83  30 2.83
   2  0.000  0.000  0.500-   3 2.83   6 2.83   7 2.83   8 2.83   9 2.83  13 2.83  20 2.83  21 2.83
                            23 2.83  27 2.83  28 2.83  29 2.83
   3  0.000  0.250  0.250-   1 2.83   2 2.83   4 2.83   5 2.83   7 2.83   9 2.83  10 2.83  20 2.83
                            22 2.83  23 2.83  24 2.83  30 2.83
   4  0.000  0.500  0.000-   3 2.83   6 2.83  10 2.83  11 2.83  12 2.83  22 2.83  24 2.83  25 2.83
                            26 2.83  28 2.83  29 2.83  30 2.83
   5  0.000  0.500  0.500-   3 2.83   6 2.83   9 2.83  10 2.83  11 2.83  13 2.83  23 2.83  24 2.83
                            25 2.83  27 2.83  28 2.83  29 2.83
   6  0.000  0.750  0.750-   1 2.83   2 2.83   4 2.83   5 2.83   8 2.83  11 2.83  12 2.83  13 2.83
                            21 2.83  25 2.83  26 2.83  27 2.83
   7  0.250  0.000  0.250-   1 2.83   2 2.83   3 2.83   9 2.83  12 2.83  13 2.83  14 2.83  15 2.83
                            16 2.83  18 2.83  29 2.83  30 2.83
   8  0.250  0.000  0.750-   1 2.83   2 2.83   6 2.83   9 2.83  12 2.83  13 2.83  14 2.83  15 2.83
                            19 2.83  28 2.83  30 2.83  31 2.83
   9  0.250  0.250  0.500-   2 2.83   3 2.83   5 2.83   7 2.83   8 2.83  10 2.83  11 2.83  15 2.83
                            16 2.83  17 2.83  28 2.83  31 2.83
  10  0.250  0.500  0.250-   3 2.83   4 2.83   5 2.83   9 2.83  12 2.83  13 2.83  16 2.83  17 2.83
                            18 2.83  29 2.83  30 2.83  32 2.83
  11  0.250  0.500  0.750-   4 2.83   5 2.83   6 2.83   9 2.83  12 2.83  13 2.83  17 2.83  19 2.83
                            28 2.83  30 2.83  31 2.83  32 2.83
  12  0.250  0.750  0.000-   1 2.83   4 2.83   6 2.83   7 2.83   8 2.83  10 2.83  11 2.83  14 2.83
                            18 2.83  19 2.83  29 2.83  32 2.83
  13  0.250  0.750  0.500-   2 2.83   5 2.83   6 2.83   7 2.83   8 2.83  10 2.83  11 2.83  15 2.83
                            17 2.83  18 2.83  19 2.83  29 2.83
  14  0.500  0.000  0.000-   7 2.83   8 2.83  12 2.83  16 2.83  18 2.83  19 2.83  20 2.83  21 2.83
                            22 2.83  26 2.83  30 2.83  31 2.83
  15  0.500  0.000  0.500-   7 2.83   8 2.83   9 2.83  13 2.83  16 2.83  18 2.83  19 2.83  20 2.83
                            21 2.83  23 2.83  27 2.83  31 2.83
  16  0.500  0.250  0.250-   7 2.83   9 2.83  10 2.83  14 2.83  15 2.83  17 2.83  20 2.83  22 2.83
                            23 2.83  24 2.83  30 2.83  32 2.83
  17  0.500  0.500  0.500-   9 2.83  10 2.83  11 2.83  13 2.83  16 2.83  18 2.83  19 2.83  23 2.83
                            24 2.83  25 2.83  27 2.83  31 2.83
  18  0.500  0.750  0.250-   7 2.83  10 2.83  12 2.83  13 2.83  14 2.83  15 2.83  17 2.83  20 2.83
                            24 2.83  26 2.83  27 2.83  32 2.83
  19  0.500  0.750  0.750-   8 2.83  11 2.83  12 2.83  13 2.83  14 2.83  15 2.83  17 2.83  21 2.83
                            25 2.83  26 2.83  27 2.83  32 2.83
  20  0.750  0.000  0.250-   1 2.83   2 2.83   3 2.83  14 2.83  15 2.83  16 2.83  18 2.83  22 2.83
                            23 2.83  26 2.83  27 2.83  29 2.83
  21  0.750  0.000  0.750-   1 2.83   2 2.83   6 2.83  14 2.83  15 2.83  19 2.83  22 2.83  23 2.83
                            26 2.83  27 2.83  28 2.83  31 2.83
  22  0.750  0.250  0.000-   1 2.83   3 2.83   4 2.83  14 2.83  16 2.83  20 2.83  21 2.83  24 2.83
                            25 2.83  28 2.83  31 2.83  32 2.83
  23  0.750  0.250  0.500-   2 2.83   3 2.83   5 2.83  15 2.83  16 2.83  17 2.83  20 2.83  21 2.83
                            24 2.83  25 2.83  28 2.83  31 2.83
  24  0.750  0.500  0.250-   3 2.83   4 2.83   5 2.83  16 2.83  17 2.83  18 2.83  22 2.83  23 2.83
                            26 2.83  27 2.83  29 2.83  32 2.83
  25  0.750  0.500  0.750-   4 2.83   5 2.83   6 2.83  17 2.83  19 2.83  22 2.83  23 2.83  26 2.83
                            27 2.83  28 2.83  31 2.83  32 2.83
  26  0.750  0.750  0.000-   1 2.83   4 2.83   6 2.83  14 2.83  18 2.83  19 2.83  20 2.83  21 2.83
                            24 2.83  25 2.83  29 2.83  32 2.83
  27  0.750  0.750  0.500-   2 2.83   5 2.83   6 2.83  15 2.83  17 2.83  18 2.83  19 2.83  20 2.83
                            21 2.83  24 2.83  25 2.83  29 2.83
  28  0.000  0.250  0.750-   1 2.83   2 2.83   4 2.83   5 2.83   8 2.83   9 2.83  11 2.83  21 2.83
                            22 2.83  23 2.83  25 2.83  30 2.83
  29  0.000  0.750  0.250-   1 2.83   2 2.83   4 2.83   5 2.83   7 2.83  10 2.83  12 2.83  13 2.83
                            20 2.83  24 2.83  26 2.83  27 2.83
  30  0.250  0.250  0.000-   1 2.83   3 2.83   4 2.83   7 2.83   8 2.83  10 2.83  11 2.83  14 2.83
                            16 2.83  28 2.83  31 2.83  32 2.83
  31  0.500  0.250  0.750-   8 2.83   9 2.83  11 2.83  14 2.83  15 2.83  17 2.83  21 2.83  22 2.83
                            23 2.83  25 2.83  30 2.83  32 2.83
  32  0.500  0.500  0.000-  10 2.83  11 2.83  12 2.83  16 2.83  18 2.83  19 2.83  22 2.83  24 2.83
                            25 2.83  26 2.83  30 2.83  31 2.83
 

IMPORTANT INFORMATION: All symmetrisations will be switched off!
NOSYMM: (Re-)initialisation of all symmetry stuff for point group C_1.

 
 
 KPOINTS: K-Points                                

Automatic generation of k-mesh.
Space group operators:
 irot       det(A)        alpha          n_x          n_y          n_z        tau_x        tau_y        tau_z
    1     1.000000     0.000000     1.000000     0.000000     0.000000     0.000000     0.000000     0.000000
 
 Subroutine IBZKPT returns following result:
 ===========================================
 
 Found     36 irreducible k-points:
 
 Following reciprocal coordinates:
            Coordinates               Weight
  0.000000  0.000000  0.000000      1.000000
  0.250000  0.000000  0.000000      2.000000
  0.500000  0.000000  0.000000      1.000000
  0.000000  0.250000  0.000000      2.000000
  0.250000  0.250000  0.000000      2.000000
  0.500000  0.250000  0.000000      2.000000
 -0.250000  0.250000  0.000000      2.000000
  0.000000  0.500000  0.000000      1.000000
  0.250000  0.500000  0.000000      2.000000
  0.500000  0.500000  0.000000      1.000000
  0.000000  0.000000  0.250000      2.000000
  0.250000  0.000000  0.250000      2.000000
  0.500000  0.000000  0.250000      2.000000
 -0.250000  0.000000  0.250000      2.000000
  0.000000  0.250000  0.250000      2.000000
  0.250000  0.250000  0.250000      2.000000
  0.500000  0.250000  0.250000      2.000000
 -0.250000  0.250000  0.250000      2.000000
  0.000000  0.500000  0.250000      2.000000
  0.250000  0.500000  0.250000      2.000000
  0.500000  0.500000  0.250000      2.000000
 -0.250000  0.500000  0.250000      2.000000
  0.000000 -0.250000  0.250000      2.000000
  0.250000 -0.250000  0.250000      2.000000
  0.500000 -0.250000  0.250000      2.000000
 -0.250000 -0.250000  0.250000      2.000000
  0.000000  0.000000  0.500000      1.000000
  0.250000  0.000000  0.500000      2.000000
  0.500000  0.000000  0.500000      1.000000
  0.000000  0.250000  0.500000      2.000000
  0.250000  0.250000  0.500000      2.000000
  0.500000  0.250000  0.500000      2.000000
 -0.250000  0.250000  0.500000      2.000000
  0.000000  0.500000  0.500000      1.000000
  0.250000  0.500000  0.500000      2.000000
  0.500000  0.500000  0.500000      1.000000
 
 Following cartesian coordinates:
            Coordinates               Weight
  0.000000  0.000000  0.000000      1.000000
  0.125000  0.000000  0.000000      2.000000
  0.250000  0.000000  0.000000      1.000000
  0.000000  0.125000  0.000000      2.000000
  0.125000  0.125000  0.000000      2.000000
  0.250000  0.125000  0.000000      2.000000
 -0.125000  0.125000  0.000000      2.000000
  0.000000  0.250000  0.000000      1.000000
  0.125000  0.250000  0.000000      2.000000
  0.250000  0.250000  0.000000      1.000000
  0.000000  0.000000  0.125000      2.000000
  0.125000  0.000000  0.125000      2.000000
  0.250000  0.000000  0.125000      2.000000
 -0.125000  0.000000  0.125000      2.000000
  0.000000  0.125000  0.125000      2.000000
  0.125000  0.125000  0.125000      2.000000
  0.250000  0.125000  0.125000      2.000000
 -0.125000  0.125000  0.125000      2.000000
  0.000000  0.250000  0.125000      2.000000
  0.125000  0.250000  0.125000      2.000000
  0.250000  0.250000  0.125000      2.000000
 -0.125000  0.250000  0.125000      2.000000
  0.000000 -0.125000  0.125000      2.000000
  0.125000 -0.125000  0.125000      2.000000
  0.250000 -0.125000  0.125000      2.000000
 -0.125000 -0.125000  0.125000      2.000000
  0.000000  0.000000  0.250000      1.000000
  0.125000  0.000000  0.250000      2.000000
  0.250000  0.000000  0.250000      1.000000
  0.000000  0.125000  0.250000      2.000000
  0.125000  0.125000  0.250000      2.000000
  0.250000  0.125000  0.250000      2.000000
 -0.125000  0.125000  0.250000      2.000000
  0.000000  0.250000  0.250000      1.000000
  0.125000  0.250000  0.250000      2.000000
  0.250000  0.250000  0.250000      1.000000
 


--------------------------------------------------------------------------------------------------------




 Dimension of arrays:
   k-points           NKPTS =     36   k-points in BZ     NKDIM =     36   number of bands    NBANDS=    208
   number of dos      NEDOS =    301   number of ions     NIONS =     32
   non local maximal  LDIM  =      6   non local SUM 2l+1 LMDIM =     18
   total plane-waves  NPLWV = 110592
   max r-space proj   IRMAX =      1   max aug-charges    IRDMAX=  13281
   dimension x,y,z NGX =    48 NGY =   48 NGZ =   48
   dimension x,y,z NGXF=    96 NGYF=   96 NGZF=   96
   support grid    NGXF=    96 NGYF=   96 NGZF=   96
   ions per type =              27   5
 NGX,Y,Z   is equivalent  to a cutoff of   9.97,  9.97,  9.97 a.u.
 NGXF,Y,Z  is equivalent  to a cutoff of  19.95, 19.95, 19.95 a.u.


 I would recommend the setting:
   dimension x,y,z NGX =    45 NGY =   45 NGZ =   45
 SYSTEM =  bcc Al                                  
 POSCAR =  Math                                    

 Startparameter for this run:
   NWRITE =      2    write-flag & timer
   PREC   = a         normal or accurate (medium, high low for compatibility)
   ISTART =      0    job   : 0-new  1-cont  2-samecut
   ICHARG =      1    charge: 1-file 2-atom 10-const
   ISPIN  =      1    spin polarized calculation?
   LNONCOLLINEAR =      F non collinear calculations
   LSORBIT =      F    spin-orbit coupling
   INIWAV =      1    electr: 0-lowe 1-rand  2-diag
   LASPH  =      F    aspherical Exc in radial PAW
   METAGGA=      F    non-selfconsistent MetaGGA calc.

 Electronic Relaxation 1
   ENCUT  =  300.0 eV  22.05 Ry    4.70 a.u.  11.30 11.30 11.30*2*pi/ulx,y,z
   ENINI  =  300.0     initial cutoff
   ENAUG  =  412.5 eV  augmentation charge cutoff
   NELM   =     80;   NELMIN=  3; NELMDL=  0     # of ELM steps 
   EDIFF  = 0.1E-03   stopping-criterion for ELM
   LREAL  =      F    real-space projection
   NLSPLINE    = F    spline interpolate recip. space projectors
   LCOMPAT=      F    compatible to vasp.4.4
   GGA_COMPAT  = T    GGA compatible to vasp.4.4-vasp.4.6
   LMAXPAW     = -100 max onsite density
   LMAXMIX     =    2 max onsite mixed and CHGCAR
   VOSKOWN=      0    Vosko Wilk Nusair interpolation
   ROPT   =    0.00000   0.00000
 Ionic relaxation
   EDIFFG = 0.1E-02   stopping-criterion for IOM
   NSW    =    100    number of steps for IOM
   NBLOCK =      1;   KBLOCK =    100    inner block; outer block 
   IBRION =      2    ionic relax: 0-MD 1-quasi-New 2-CG
   NFREE  =      1    steps in history (QN), initial steepest desc. (CG)
   ISIF   =      3    stress and relaxation
   IWAVPR =     11    prediction:  0-non 1-charg 2-wave 3-comb
   ISYM   =      0    0-nonsym 1-usesym 2-fastsym
   LCORR  =      T    Harris-Foulkes like correction to forces

   POTIM  = 0.5000    time-step for ionic-motion
   TEIN   =    0.0    initial temperature
   TEBEG  =    0.0;   TEEND  =   0.0 temperature during run
   SMASS  =  -3.00    Nose mass-parameter (am)
   estimated Nose-frequenzy (Omega)   =  0.10E-29 period in steps =****** mass=  -0.146E-26a.u.
   SCALEE = 1.0000    scale energy and forces
   NPACO  =    256;   APACO  = 16.0  distance and # of slots for P.C.
   PSTRESS=    0.0 pullay stress

  Mass of Ions in am
   POMASS = 107.87195.08
  Ionic Valenz
   ZVAL   =  11.00 10.00
  Atomic Wigner-Seitz radii
   RWIGS  =  -1.00 -1.00
  virtual crystal weights 
   VCA    =   1.00  1.00
   NELECT =     347.0000    total number of electrons
   NUPDOWN=      -1.0000    fix difference up-down

 DOS related values:
   EMIN   =  10.00;   EMAX   =-10.00  energy-range for DOS
   EFERMI =   0.00
   ISMEAR =     1;   SIGMA  =   0.10  broadening in eV -4-tet -1-fermi 0-gaus

 Electronic relaxation 2 (details)
   IALGO  =     38    algorithm
   LDIAG  =      T    sub-space diagonalisation (order eigenvalues)
   LSUBROT=      F    optimize rotation matrix (better conditioning)
   TURBO    =      0    0=normal 1=particle mesh
   IRESTART =      0    0=no restart 2=restart with 2 vectors
   NREBOOT  =      0    no. of reboots
   NMIN     =      0    reboot dimension
   EREF     =   0.00    reference energy to select bands
   IMIX   =      4    mixing-type and parameters
     AMIX     =   0.40;   BMIX     =  1.00
     AMIX_MAG =   1.60;   BMIX_MAG =  1.00
     AMIN     =   0.10
     WC   =   100.;   INIMIX=   1;  MIXPRE=   1;  MAXMIX= -45

 Intra band minimization:
   WEIMIN = 0.0010     energy-eigenvalue tresh-hold
   EBREAK =  0.12E-06  absolut break condition
   DEPER  =   0.30     relativ break condition  

   TIME   =   0.40     timestep for ELM

  volume/ion in A,a.u.               =      16.00       107.97
  Fermi-wavevector in a.u.,A,eV,Ry     =   1.438008  2.717441 28.135043  2.067867
  Thomas-Fermi vector in A             =   2.557023
 
 Write flags
   LWAVE  =      F    write WAVECAR
   LCHARG =      F    write CHGCAR
   LVTOT  =      F    write LOCPOT, total local potential
   LVHAR  =      F    write LOCPOT, Hartree potential only
   LELF   =      F    write electronic localiz. function (ELF)
   LORBIT =      0    0 simple, 1 ext, 2 COOP (PROOUT)


 Dipole corrections
   LMONO  =      F    monopole corrections only (constant potential shift)
   LDIPOL =      F    correct potential (dipole corrections)
   IDIPOL =      0    1-x, 2-y, 3-z, 4-all directions 
   EPSILON=  1.0000000 bulk dielectric constant

 Exchange correlation treatment:
   GGA     =    --    GGA type
   LEXCH   =     8    internal setting for exchange type
   VOSKOWN=      0    Vosko Wilk Nusair interpolation
   LHFCALC =     F    Hartree Fock is set to
   LHFONE  =     F    Hartree Fock one center treatment
   AEXX    =    0.0000 exact exchange contribution

 Linear response parameters
   LEPSILON=     F    determine dielectric tensor
   LRPA    =     F    only Hartree local field effects (RPA)
   LNABLA  =     F    use nabla operator in PAW spheres
   LVEL    =     F    velocity operator in full k-point grid
   LINTERFAST=   F  fast interpolation
   KINTER  =     0    interpolate to denser k-point grid
   CSHIFT  =0.1000    complex shift for real part using Kramers Kronig
   OMEGAMAX=  -1.0    maximum frequency
   DEG_THRESHOLD= 0.2000000E-02 threshold for treating states as degnerate
   RTIME   =    0.100 relaxation time in fs

 Orbital magnetization related:
   ORBITALMAG=     F  switch on orbital magnetization
   LCHIMAG   =     F  perturbation theory with respect to B field
   DQ        =  0.001000  dq finite difference perturbation B field



--------------------------------------------------------------------------------------------------------


 conjugate gradient relaxation of ions
 charge density and potential will be updated during run
 non-spin polarized calculation
 Variant of blocked Davidson
 Davidson routine will perform the subspace rotation
 perform sub-space diagonalisation
    after iterative eigenvector-optimisation
 modified Broyden-mixing scheme, WC =      100.0
 initial mixing is a Kerker type mixing with AMIX =  0.4000 and BMIX =      1.0000
 Hartree-type preconditioning will be used
 using additional bands           34
 reciprocal scheme for non local part
 use partial core corrections
 calculate Harris-corrections to forces 
   (improved forces if not selfconsistent)
 use gradient corrections 
 use of overlap-Matrix (Vanderbilt PP)
 Methfessel and Paxton  Order N= 1 SIGMA  =   0.10


--------------------------------------------------------------------------------------------------------


  energy-cutoff  :      300.00
  volume of cell :      512.00
      direct lattice vectors                 reciprocal lattice vectors
     8.000000000  0.000000000  0.000000000     0.125000000  0.000000000  0.000000000
     0.000000000  8.000000000  0.000000000     0.000000000  0.125000000  0.000000000
     0.000000000  0.000000000  8.000000000     0.000000000  0.000000000  0.125000000

  length of vectors
     8.000000000  8.000000000  8.000000000     0.125000000  0.125000000  0.125000000


 
 k-points in units of 2pi/SCALE and weight: K-Points                                
   0.00000000  0.00000000  0.00000000       0.016
   0.12500000  0.00000000  0.00000000       0.031
   0.25000000  0.00000000  0.00000000       0.016
   0.00000000  0.12500000  0.00000000       0.031
   0.12500000  0.12500000  0.00000000       0.031
   0.25000000  0.12500000  0.00000000       0.031
  -0.12500000  0.12500000  0.00000000       0.031
   0.00000000  0.25000000  0.00000000       0.016
   0.12500000  0.25000000  0.00000000       0.031
   0.25000000  0.25000000  0.00000000       0.016
   0.00000000  0.00000000  0.12500000       0.031
   0.12500000  0.00000000  0.12500000       0.031
   0.25000000  0.00000000  0.12500000       0.031
  -0.12500000  0.00000000  0.12500000       0.031
   0.00000000  0.12500000  0.12500000       0.031
   0.12500000  0.12500000  0.12500000       0.031
   0.25000000  0.12500000  0.12500000       0.031
  -0.12500000  0.12500000  0.12500000       0.031
   0.00000000  0.25000000  0.12500000       0.031
   0.12500000  0.25000000  0.12500000       0.031
   0.25000000  0.25000000  0.12500000       0.031
  -0.12500000  0.25000000  0.12500000       0.031
   0.00000000 -0.12500000  0.12500000       0.031
   0.12500000 -0.12500000  0.12500000       0.031
   0.25000000 -0.12500000  0.12500000       0.031
  -0.12500000 -0.12500000  0.12500000       0.031
   0.00000000  0.00000000  0.25000000       0.016
   0.12500000  0.00000000  0.25000000       0.031
   0.25000000  0.00000000  0.25000000       0.016
   0.00000000  0.12500000  0.25000000       0.031
   0.12500000  0.12500000  0.25000000       0.031
   0.25000000  0.12500000  0.25000000       0.031
  -0.12500000  0.12500000  0.25000000       0.031
   0.00000000  0.25000000  0.25000000       0.016
   0.12500000  0.25000000  0.25000000       0.031
   0.25000000  0.25000000  0.25000000       0.016
 
 k-points in reciprocal lattice and weights: K-Points                                
   0.00000000  0.00000000  0.00000000       0.016
   0.25000000  0.00000000  0.00000000       0.031
   0.50000000  0.00000000  0.00000000       0.016
   0.00000000  0.25000000  0.00000000       0.031
   0.25000000  0.25000000  0.00000000       0.031
   0.50000000  0.25000000  0.00000000       0.031
  -0.25000000  0.25000000  0.00000000       0.031
   0.00000000  0.50000000  0.00000000       0.016
   0.25000000  0.50000000  0.00000000       0.031
   0.50000000  0.50000000  0.00000000       0.016
   0.00000000  0.00000000  0.25000000       0.031
   0.25000000  0.00000000  0.25000000       0.031
   0.50000000  0.00000000  0.25000000       0.031
  -0.25000000  0.00000000  0.25000000       0.031
   0.00000000  0.25000000  0.25000000       0.031
   0.25000000  0.25000000  0.25000000       0.031
   0.50000000  0.25000000  0.25000000       0.031
  -0.25000000  0.25000000  0.25000000       0.031
   0.00000000  0.50000000  0.25000000       0.031
   0.25000000  0.50000000  0.25000000       0.031
   0.50000000  0.50000000  0.25000000       0.031
  -0.25000000  0.50000000  0.25000000       0.031
   0.00000000 -0.25000000  0.25000000       0.031
   0.25000000 -0.25000000  0.25000000       0.031
   0.50000000 -0.25000000  0.25000000       0.031
  -0.25000000 -0.25000000  0.25000000       0.031
   0.00000000  0.00000000  0.50000000       0.016
   0.25000000  0.00000000  0.50000000       0.031
   0.50000000  0.00000000  0.50000000       0.016
   0.00000000  0.25000000  0.50000000       0.031
   0.25000000  0.25000000  0.50000000       0.031
   0.50000000  0.25000000  0.50000000       0.031
  -0.25000000  0.25000000  0.50000000       0.031
   0.00000000  0.50000000  0.50000000       0.016
   0.25000000  0.50000000  0.50000000       0.031
   0.50000000  0.50000000  0.50000000       0.016
 
 position of ions in fractional coordinates (direct lattice) 
   0.00000000  0.00000000  0.00000000
   0.00000000  0.00000000  0.50000000
   0.00000000  0.25000000  0.25000000
   0.00000000  0.50000000  0.00000000
   0.00000000  0.50000000  0.50000000
   0.00000000  0.75000000  0.75000000
   0.25000000  0.00000000  0.25000000
   0.25000000  0.00000000  0.75000000
   0.25000000  0.25000000  0.50000000
   0.25000000  0.50000000  0.25000000
   0.25000000  0.50000000  0.75000000
   0.25000000  0.75000000  0.00000000
   0.25000000  0.75000000  0.50000000
   0.50000000  0.00000000  0.00000000
   0.50000000  0.00000000  0.50000000
   0.50000000  0.25000000  0.25000000
   0.50000000  0.50000000  0.50000000
   0.50000000  0.75000000  0.25000000
   0.50000000  0.75000000  0.75000000
   0.75000000  0.00000000  0.25000000
   0.75000000  0.00000000  0.75000000
   0.75000000  0.25000000  0.00000000
   0.75000000  0.25000000  0.50000000
   0.75000000  0.50000000  0.25000000
   0.75000000  0.50000000  0.75000000
   0.75000000  0.75000000  0.00000000
   0.75000000  0.75000000  0.50000000
   0.00000000  0.25000000  0.75000000
   0.00000000  0.75000000  0.25000000
   0.25000000  0.25000000  0.00000000
   0.50000000  0.25000000  0.75000000
   0.50000000  0.50000000  0.00000000
 
 position of ions in cartesian coordinates  (Angst):
   0.00000000  0.00000000  0.00000000
   0.00000000  0.00000000  4.00000000
   0.00000000  2.00000000  2.00000000
   0.00000000  4.00000000  0.00000000
   0.00000000  4.00000000  4.00000000
   0.00000000  6.00000000  6.00000000
   2.00000000  0.00000000  2.00000000
   2.00000000  0.00000000  6.00000000
   2.00000000  2.00000000  4.00000000
   2.00000000  4.00000000  2.00000000
   2.00000000  4.00000000  6.00000000
   2.00000000  6.00000000  0.00000000
   2.00000000  6.00000000  4.00000000
   4.00000000  0.00000000  0.00000000
   4.00000000  0.00000000  4.00000000
   4.00000000  2.00000000  2.00000000
   4.00000000  4.00000000  4.00000000
   4.00000000  6.00000000  2.00000000
   4.00000000  6.00000000  6.00000000
   6.00000000  0.00000000  2.00000000
   6.00000000  0.00000000  6.00000000
   6.00000000  2.00000000  0.00000000
   6.00000000  2.00000000  4.00000000
   6.00000000  4.00000000  2.00000000
   6.00000000  4.00000000  6.00000000
   6.00000000  6.00000000  0.00000000
   6.00000000  6.00000000  4.00000000
   0.00000000  2.00000000  6.00000000
   0.00000000  6.00000000  2.00000000
   2.00000000  2.00000000  0.00000000
   4.00000000  2.00000000  6.00000000
   4.00000000  4.00000000  0.00000000
 


--------------------------------------------------------------------------------------------------------


 k-point  1 :   0.0000 0.0000 0.0000  plane waves:    6031
 k-point  2 :   0.2500 0.0000 0.0000  plane waves:    6055
 k-point  3 :   0.5000 0.0000 0.0000  plane waves:    6062
 k-point  4 :   0.0000 0.2500 0.0000  plane waves:    6055
 k-point  5 :   0.2500 0.2500 0.0000  plane waves:    6066
 k-point  6 :   0.5000 0.2500 0.0000  plane waves:    6042
 k-point  7 :  -0.2500 0.2500 0.0000  plane waves:    6066
 k-point  8 :   0.0000 0.5000 0.0000  plane waves:    6062
 k-point  9 :   0.2500 0.5000 0.0000  plane waves:    6042
 k-point 10 :   0.5000 0.5000 0.0000  plane waves:    6088
 k-point 11 :   0.0000 0.0000 0.2500  plane waves:    6055
 k-point 12 :   0.2500 0.0000 0.2500  plane waves:    6066
 k-point 13 :   0.5000 0.0000 0.2500  plane waves:    6042
 k-point 14 :  -0.2500 0.0000 0.2500  plane waves:    6066
 k-point 15 :   0.0000 0.2500 0.2500  plane waves:    6066
 k-point 16 :   0.2500 0.2500 0.2500  plane waves:    6007
 k-point 17 :   0.5000 0.2500 0.2500  plane waves:    6022
 k-point 18 :  -0.2500 0.2500 0.2500  plane waves:    6007
 k-point 19 :   0.0000 0.5000 0.2500  plane waves:    6042
 k-point 20 :   0.2500 0.5000 0.2500  plane waves:    6022
 k-point 21 :   0.5000 0.5000 0.2500  plane waves:    6032
 k-point 22 :  -0.2500 0.5000 0.2500  plane waves:    6022
 k-point 23 :   0.0000-0.2500 0.2500  plane waves:    6066
 k-point 24 :   0.2500-0.2500 0.2500  plane waves:    6007
 k-point 25 :   0.5000-0.2500 0.2500  plane waves:    6022
 k-point 26 :  -0.2500-0.2500 0.2500  plane waves:    6007
 k-point 27 :   0.0000 0.0000 0.5000  plane waves:    6062
 k-point 28 :   0.2500 0.0000 0.5000  plane waves:    6042
 k-point 29 :   0.5000 0.0000 0.5000  plane waves:    6088
 k-point 30 :   0.0000 0.2500 0.5000  plane waves:    6042
 k-point 31 :   0.2500 0.2500 0.5000  plane waves:    6022
 k-point 32 :   0.5000 0.2500 0.5000  plane waves:    6032
 k-point 33 :  -0.2500 0.2500 0.5000  plane waves:    6022
 k-point 34 :   0.0000 0.5000 0.5000  plane waves:    6088
 k-point 35 :   0.2500 0.5000 0.5000  plane waves:    6032
 k-point 36 :   0.5000 0.5000 0.5000  plane waves:    6008

 maximum and minimum number of plane-waves per node :      1558     1445

 maximum number of plane-waves:      6088
 maximum index in each direction: 
   IXMAX=   11   IYMAX=   11   IZMAX=   11
   IXMIN=  -11   IYMIN=  -11   IZMIN=  -11

 NGX is ok and might be reduce to  46
 NGY is ok and might be reduce to  46
 NGZ is ok and might be reduce to  46

 parallel 3D FFT for wavefunctions:
    minimum data exchange during FFTs selected (reduces bandwidth)
 parallel 3D FFT for charge:
    minimum data exchange during FFTs selected (reduces bandwidth)


 total amount of memory used by VASP on root node   272276. kBytes
========================================================================

   base      :      30000. kBytes
   nonl-proj :      16885. kBytes
   fftplans  :       8388. kBytes
   grid      :      13685. kBytes
   one-center:        124. kBytes
   wavefun   :     203194. kBytes
 
     INWAV:  cpu time    0.0010: real time    0.0001
 Broyden mixing: mesh for mixing (old mesh)
   NGX = 23   NGY = 23   NGZ = 23
  (NGX  = 96   NGY  = 96   NGZ  = 96)
  gives a total of  12167 points

 initial charge density was supplied:
 charge density of overlapping atoms calculated
 number of electron     347.0000000 magnetization 
 keeping initial charge density in first step


--------------------------------------------------------------------------------------------------------


 Maximum index for augmentation-charges         3207 (set IRDMAX)


--------------------------------------------------------------------------------------------------------


 First call to EWALD:  gamma=   0.222
 Maximum number of real-space cells 3x 3x 3
 Maximum number of reciprocal cells 3x 3x 3

 FEWALD executed in parallel
    FEWALD:  cpu time    0.0020: real time    0.0028


----------------------------------------- Iteration    1(   1)  ---------------------------------------


    POTLOK:  cpu time    0.1320: real time    0.1315
    SETDIJ:  cpu time    0.0300: real time    0.0306
     EDDAV:  cpu time   61.5176: real time   61.6494
       DOS:  cpu time    0.0200: real time    0.0205
    --------------------------------------------
      LOOP:  cpu time   61.7006: real time   61.8341

 eigenvalue-minimisations  : 15016
 total energy-change (2. order) : 0.1902756E+04  (-0.1278700E+05)
 number of electron     347.0000000 magnetization 
 augmentation part      347.0000000 magnetization 

 Free energy of the ion-electron system (eV)
  ---------------------------------------------------
  alpha Z        PSCENC =      1737.08326601
  Ewald energy   TEWEN  =    -31062.97097266
  -Hartree energ DENC   =     -5624.16245295
  -exchange      EXHF   =         0.00000000
  -V(xc)+E(xc)   XCENC  =      -258.44355830
  PAW double counting   =     30574.09570896   -29187.63187913
  entropy T*S    EENTRO =         0.00152857
  eigenvalues    EBANDS =      4074.62529048
  atomic energy  EATOM  =     31650.15902660
  Solvation  Ediel_sol  =         0.00000000
  ---------------------------------------------------
  free energy    TOTEN  =      1902.75595758 eV

  energy without entropy =     1902.75442900  energy(sigma->0) =     1902.75544805


--------------------------------------------------------------------------------------------------------




----------------------------------------- Iteration    1(   2)  ---------------------------------------


     EDDAV:  cpu time   63.1674: real time   63.3016
       DOS:  cpu time    0.0250: real time    0.0253
    --------------------------------------------
      LOOP:  cpu time   63.1934: real time   63.3281

 eigenvalue-minimisations  : 15624
 total energy-change (2. order) :-0.1937986E+04  (-0.1840090E+04)
 number of electron     347.0000000 magnetization 
 augmentation part      347.0000000 magnetization 

 Free energy of the ion-electron system (eV)
  ---------------------------------------------------
  alpha Z        PSCENC =      1737.08326601
  Ewald energy   TEWEN  =    -31062.97097266
  -Hartree energ DENC   =     -5624.16245295
  -exchange      EXHF   =         0.00000000
  -V(xc)+E(xc)   XCENC  =      -258.44355830
  PAW double counting   =     30574.09570896   -29187.63187913
  entropy T*S    EENTRO =         0.00354507
  eigenvalues    EBANDS =      2136.63773216
  atomic energy  EATOM  =     31650.15902660
  Solvation  Ediel_sol  =         0.00000000
  ---------------------------------------------------
  free energy    TOTEN  =       -35.22958425 eV

  energy without entropy =      -35.23312932  energy(sigma->0) =      -35.23076594


--------------------------------------------------------------------------------------------------------




----------------------------------------- Iteration    1(   3)  ---------------------------------------


     EDDAV:  cpu time   64.2382: real time   64.3382
       DOS:  cpu time    0.0270: real time    0.0265
    --------------------------------------------
      LOOP:  cpu time   64.2662: real time   64.3695

 eigenvalue-minimisations  : 15944
 total energy-change (2. order) :-0.7614583E+02  (-0.7428175E+02)
 number of electron     347.0000000 magnetization 
 augmentation part      347.0000000 magnetization 

 Free energy of the ion-electron system (eV)
  ---------------------------------------------------
  alpha Z        PSCENC =      1737.08326601
  Ewald energy   TEWEN  =    -31062.97097266
  -Hartree energ DENC   =     -5624.16245295
  -exchange      EXHF   =         0.00000000
  -V(xc)+E(xc)   XCENC  =      -258.44355830
  PAW double counting   =     30574.09570896   -29187.63187913
  entropy T*S    EENTRO =        -0.00209853
  eigenvalues    EBANDS =      2060.49754120
  atomic energy  EATOM  =     31650.15902660
  Solvation  Ediel_sol  =         0.00000000
  ---------------------------------------------------
  free energy    TOTEN  =      -111.37541881 eV

  energy without entropy =     -111.37332028  energy(sigma->0) =     -111.37471930


--------------------------------------------------------------------------------------------------------




----------------------------------------- Iteration    1(   4)  ---------------------------------------


     EDDAV:  cpu time   63.9433: real time   64.0595
       DOS:  cpu time    0.0260: real time    0.0256
    --------------------------------------------
      LOOP:  cpu time   63.9703: real time   64.0900

 eigenvalue-minimisations  : 15856
 total energy-change (2. order) :-0.7362240E+00  (-0.7349849E+00)
 number of electron     347.0000000 magnetization 
 augmentation part      347.0000000 magnetization 

 Free energy of the ion-electron system (eV)
  ---------------------------------------------------
  alpha Z        PSCENC =      1737.08326601
  Ewald energy   TEWEN  =    -31062.97097266
  -Hartree energ DENC   =     -5624.16245295
  -exchange      EXHF   =         0.00000000
  -V(xc)+E(xc)   XCENC  =      -258.44355830
  PAW double counting   =     30574.09570896   -29187.63187913
  entropy T*S    EENTRO =        -0.00215457
  eigenvalues    EBANDS =      2059.76137325
  atomic energy  EATOM  =     31650.15902660
  Solvation  Ediel_sol  =         0.00000000
  ---------------------------------------------------
  free energy    TOTEN  =      -112.11164280 eV

  energy without entropy =     -112.10948823  energy(sigma->0) =     -112.11092461


--------------------------------------------------------------------------------------------------------




----------------------------------------- Iteration    1(   5)  ---------------------------------------


     EDDAV:  cpu time   63.5133: real time   63.6234
       DOS:  cpu time    0.0270: real time    0.0274
    CHARGE:  cpu time    2.8826: real time    2.8822
    MIXING:  cpu time    0.0050: real time    0.0070
    --------------------------------------------
      LOOP:  cpu time   66.4289: real time   66.5418

 eigenvalue-minimisations  : 15800
 total energy-change (2. order) :-0.6410609E-02  (-0.6409931E-02)
 number of electron     347.0000252 magnetization 
 augmentation part      151.5800391 magnetization 

 Broyden mixing:
  rms(total) = 0.38411E+01    rms(broyden)= 0.38410E+01
  rms(prec ) = 0.44067E+01
  weight for this iteration     100.00

 Free energy of the ion-electron system (eV)
  ---------------------------------------------------
  alpha Z        PSCENC =      1737.08326601
  Ewald energy   TEWEN  =    -31062.97097266
  -Hartree energ DENC   =     -5624.16245295
  -exchange      EXHF   =         0.00000000
  -V(xc)+E(xc)   XCENC  =      -258.44355830
  PAW double counting   =     30574.09570896   -29187.63187913
  entropy T*S    EENTRO =        -0.00215457
  eigenvalues    EBANDS =      2059.75496265
  atomic energy  EATOM  =     31650.15902660
  Solvation  Ediel_sol  =         0.00000000
  ---------------------------------------------------
  free energy    TOTEN  =      -112.11805341 eV

  energy without entropy =     -112.11589883  energy(sigma->0) =     -112.11733521


--------------------------------------------------------------------------------------------------------




----------------------------------------- Iteration    1(   6)  ---------------------------------------


    POTLOK:  cpu time    0.1220: real time    0.1220
    SETDIJ:  cpu time    0.0270: real time    0.0269
     EDDAV:  cpu time   63.9923: real time   64.1669
       DOS:  cpu time    0.0280: real time    0.0279
    CHARGE:  cpu time    2.9146: real time    2.9234
    MIXING:  cpu time    0.0040: real time    0.0038
    --------------------------------------------
      LOOP:  cpu time   67.0878: real time   67.2729

 eigenvalue-minimisations  : 15912
 total energy-change (2. order) : 0.8323832E+01  (-0.2915768E+01)
 number of electron     347.0000261 magnetization 
 augmentation part      156.1143217 magnetization 

 Broyden mixing:
  rms(total) = 0.25928E+01    rms(broyden)= 0.25927E+01
  rms(prec ) = 0.27139E+01
  weight for this iteration     100.00

 eigenvalues of (default mixing * dielectric matrix)
  average eigenvalue GAMMA=   1.3861
  1.3861

 Free energy of the ion-electron system (eV)
  ---------------------------------------------------
  alpha Z        PSCENC =      1737.08326601
  Ewald energy   TEWEN  =    -31062.97097266
  -Hartree energ DENC   =     -5323.81024568
  -exchange      EXHF   =         0.00000000
  -V(xc)+E(xc)   XCENC  =      -268.92392879
  PAW double counting   =     32475.80236919   -31127.02459885
  entropy T*S    EENTRO =        -0.00353566
  eigenvalues    EBANDS =      1815.89439842
  atomic energy  EATOM  =     31650.15902660
  Solvation  Ediel_sol  =         0.00000000
  ---------------------------------------------------
  free energy    TOTEN  =      -103.79422142 eV

  energy without entropy =     -103.79068576  energy(sigma->0) =     -103.79304286


--------------------------------------------------------------------------------------------------------




----------------------------------------- Iteration    1(   7)  ---------------------------------------


    POTLOK:  cpu time    0.1230: real time    0.1232
    SETDIJ:  cpu time    0.0260: real time    0.0271
     EDDAV:  cpu time   62.9404: real time   63.0867
       DOS:  cpu time    0.0280: real time    0.0275
    CHARGE:  cpu time    2.7826: real time    2.7908
    MIXING:  cpu time    0.0040: real time    0.0036
    --------------------------------------------
      LOOP:  cpu time   65.9050: real time   66.0605

 eigenvalue-minimisations  : 15592
 total energy-change (2. order) : 0.2022312E+00  (-0.4743032E+00)
 number of electron     347.0000262 magnetization 
 augmentation part      157.1351976 magnetization 

 Broyden mixing:
  rms(total) = 0.13047E+01    rms(broyden)= 0.13046E+01
  rms(prec ) = 0.15146E+01
  weight for this iteration     100.00

 eigenvalues of (default mixing * dielectric matrix)
  average eigenvalue GAMMA=   1.4279
  0.7330  2.1228

 Free energy of the ion-electron system (eV)
  ---------------------------------------------------
  alpha Z        PSCENC =      1737.08326601
  Ewald energy   TEWEN  =    -31062.97097266
  -Hartree energ DENC   =     -5265.51482810
  -exchange      EXHF   =         0.00000000
  -V(xc)+E(xc)   XCENC  =      -271.24753905
  PAW double counting   =     33755.02366954   -32436.63126469
  entropy T*S    EENTRO =         0.00756056
  eigenvalues    EBANDS =      1790.49909156
  atomic energy  EATOM  =     31650.15902660
  Solvation  Ediel_sol  =         0.00000000
  ---------------------------------------------------
  free energy    TOTEN  =      -103.59199025 eV

  energy without entropy =     -103.59955081  energy(sigma->0) =     -103.59451043


--------------------------------------------------------------------------------------------------------




----------------------------------------- Iteration    1(   8)  ---------------------------------------


    POTLOK:  cpu time    0.1220: real time    0.1222
    SETDIJ:  cpu time    0.0270: real time    0.0270
     EDDAV:  cpu time   62.6965: real time   62.8397
       DOS:  cpu time    0.0260: real time    0.0265
    CHARGE:  cpu time    2.8516: real time    2.8602
    MIXING:  cpu time    0.0040: real time    0.0036
    --------------------------------------------
      LOOP:  cpu time   65.7290: real time   65.8822

 eigenvalue-minimisations  : 15512
 total energy-change (2. order) : 0.6540374E+00  (-0.1753557E+00)
 number of electron     347.0000262 magnetization 
 augmentation part      157.1243750 magnetization 

 Broyden mixing:
  rms(total) = 0.57947E+00    rms(broyden)= 0.57945E+00
  rms(prec ) = 0.65990E+00
  weight for this iteration     100.00

 eigenvalues of (default mixing * dielectric matrix)
  average eigenvalue GAMMA=   1.3763
  2.4722  1.0980  0.5587

 Free energy of the ion-electron system (eV)
  ---------------------------------------------------
  alpha Z        PSCENC =      1737.08326601
  Ewald energy   TEWEN  =    -31062.97097266
  -Hartree energ DENC   =     -5227.81847914
  -exchange      EXHF   =         0.00000000
  -V(xc)+E(xc)   XCENC  =      -272.41720996
  PAW double counting   =     34791.16205563   -33490.78741924
  entropy T*S    EENTRO =        -0.00109408
  eigenvalues    EBANDS =      1772.65287405
  atomic energy  EATOM  =     31650.15902660
  Solvation  Ediel_sol  =         0.00000000
  ---------------------------------------------------
  free energy    TOTEN  =      -102.93795281 eV

  energy without entropy =     -102.93685873  energy(sigma->0) =     -102.93758811


--------------------------------------------------------------------------------------------------------




----------------------------------------- Iteration    1(   9)  ---------------------------------------


    POTLOK:  cpu time    0.1240: real time    0.1239
    SETDIJ:  cpu time    0.0270: real time    0.0270
     EDDAV:  cpu time   63.1194: real time   63.2830
       DOS:  cpu time    0.0270: real time    0.0265
    CHARGE:  cpu time    2.8276: real time    2.8269
    MIXING:  cpu time    0.0040: real time    0.0037
    --------------------------------------------
      LOOP:  cpu time   66.1289: real time   66.2924

 eigenvalue-minimisations  : 15640
 total energy-change (2. order) : 0.5418356E-01  (-0.3564331E-01)
 number of electron     347.0000262 magnetization 
 augmentation part      157.1160411 magnetization 

 Broyden mixing:
  rms(total) = 0.14299E+00    rms(broyden)= 0.14297E+00
  rms(prec ) = 0.24790E+00
  weight for this iteration     100.00

 eigenvalues of (default mixing * dielectric matrix)
  average eigenvalue GAMMA=   1.1904
  2.4848  1.1500  0.5635  0.5635

 Free energy of the ion-electron system (eV)
  ---------------------------------------------------
  alpha Z        PSCENC =      1737.08326601
  Ewald energy   TEWEN  =    -31062.97097266
  -Hartree energ DENC   =     -5222.97420776
  -exchange      EXHF   =         0.00000000
  -V(xc)+E(xc)   XCENC  =      -272.63039760
  PAW double counting   =     35330.28509809   -34039.78641128
  entropy T*S    EENTRO =         0.00298857
  eigenvalues    EBANDS =      1777.94784079
  atomic energy  EATOM  =     31650.15902660
  Solvation  Ediel_sol  =         0.00000000
  ---------------------------------------------------
  free energy    TOTEN  =      -102.88376925 eV

  energy without entropy =     -102.88675782  energy(sigma->0) =     -102.88476544


--------------------------------------------------------------------------------------------------------




----------------------------------------- Iteration    1(  10)  ---------------------------------------


    POTLOK:  cpu time    0.1220: real time    0.1230
    SETDIJ:  cpu time    0.0270: real time    0.0267
     EDDAV:  cpu time   62.8324: real time   63.0209
       DOS:  cpu time    0.0270: real time    0.0268
    CHARGE:  cpu time    2.8176: real time    2.8245
    MIXING:  cpu time    0.0040: real time    0.0040
    --------------------------------------------
      LOOP:  cpu time   65.8310: real time   66.0288

 eigenvalue-minimisations  : 15568
 total energy-change (2. order) : 0.3814299E-01  (-0.6930570E-02)
 number of electron     347.0000262 magnetization 
 augmentation part      157.0975474 magnetization 

 Broyden mixing:
  rms(total) = 0.32478E-01    rms(broyden)= 0.32458E-01
  rms(prec ) = 0.41519E-01
  weight for this iteration     100.00

 eigenvalues of (default mixing * dielectric matrix)
  average eigenvalue GAMMA=   1.1584
  2.4482  1.2792  0.9918  0.5876  0.4853

 Free energy of the ion-electron system (eV)
  ---------------------------------------------------
  alpha Z        PSCENC =      1737.08326601
  Ewald energy   TEWEN  =    -31062.97097266
  -Hartree energ DENC   =     -5224.24074431
  -exchange      EXHF   =         0.00000000
  -V(xc)+E(xc)   XCENC  =      -272.59905699
  PAW double counting   =     35372.68851562   -34082.76627238
  entropy T*S    EENTRO =         0.00389944
  eigenvalues    EBANDS =      1779.79671242
  atomic energy  EATOM  =     31650.15902660
  Solvation  Ediel_sol  =         0.00000000
  ---------------------------------------------------
  free energy    TOTEN  =      -102.84562626 eV

  energy without entropy =     -102.84952569  energy(sigma->0) =     -102.84692607


--------------------------------------------------------------------------------------------------------




----------------------------------------- Iteration    1(  11)  ---------------------------------------


    POTLOK:  cpu time    0.1220: real time    0.1228
    SETDIJ:  cpu time    0.0270: real time    0.0270
     EDDAV:  cpu time   62.6005: real time   62.7593
       DOS:  cpu time    0.0270: real time    0.0264
    CHARGE:  cpu time    2.8156: real time    2.8174
    MIXING:  cpu time    0.0050: real time    0.0041
    --------------------------------------------
      LOOP:  cpu time   65.5980: real time   65.7600

 eigenvalue-minimisations  : 15584
 total energy-change (2. order) :-0.2259824E-03  (-0.9066580E-03)
 number of electron     347.0000262 magnetization 
 augmentation part      157.0839924 magnetization 

 Broyden mixing:
  rms(total) = 0.15555E-01    rms(broyden)= 0.15550E-01
  rms(prec ) = 0.19659E-01
  weight for this iteration     100.00

 eigenvalues of (default mixing * dielectric matrix)
  average eigenvalue GAMMA=   1.1777
  2.4387  1.6902  1.1198  0.6845  0.6289  0.5043

 Free energy of the ion-electron system (eV)
  ---------------------------------------------------
  alpha Z        PSCENC =      1737.08326601
  Ewald energy   TEWEN  =    -31062.97097266
  -Hartree energ DENC   =     -5225.47189198
  -exchange      EXHF   =         0.00000000
  -V(xc)+E(xc)   XCENC  =      -272.56275246
  PAW double counting   =     35375.84119065   -34085.60232212
  entropy T*S    EENTRO =         0.00411474
  eigenvalues    EBANDS =      1780.67448899
  atomic energy  EATOM  =     31650.15902660
  Solvation  Ediel_sol  =         0.00000000
  ---------------------------------------------------
  free energy    TOTEN  =      -102.84585224 eV

  energy without entropy =     -102.84996698  energy(sigma->0) =     -102.84722382


--------------------------------------------------------------------------------------------------------




----------------------------------------- Iteration    1(  12)  ---------------------------------------


    POTLOK:  cpu time    0.1220: real time    0.1225
    SETDIJ:  cpu time    0.0270: real time    0.0269
     EDDAV:  cpu time   49.3575: real time   49.4731
       DOS:  cpu time    0.0260: real time    0.0260
    --------------------------------------------
      LOOP:  cpu time   49.5335: real time   49.6495

 eigenvalue-minimisations  : 11520
 total energy-change (2. order) : 0.3614611E-04  (-0.6249309E-04)
 number of electron     347.0000262 magnetization 
 augmentation part      157.0839924 magnetization 

 Free energy of the ion-electron system (eV)
  ---------------------------------------------------
  alpha Z        PSCENC =      1737.08326601
  Ewald energy   TEWEN  =    -31062.97097266
  -Hartree energ DENC   =     -5225.45436034
  -exchange      EXHF   =         0.00000000
  -V(xc)+E(xc)   XCENC  =      -272.56544871
  PAW double counting   =     35384.18433908   -34093.82601963
  entropy T*S    EENTRO =         0.00414320
  eigenvalues    EBANDS =      1780.54021035
  atomic energy  EATOM  =     31650.15902660
  Solvation  Ediel_sol  =         0.00000000
  ---------------------------------------------------
  free energy    TOTEN  =      -102.84581609 eV

  energy without entropy =     -102.84995930  energy(sigma->0) =     -102.84719716


--------------------------------------------------------------------------------------------------------




 average (electrostatic) potential at core
  the test charge radii are     1.1249  1.2059
  (the norm of the test charge is              1.0000)
       1 -69.8796       2 -69.9142       3 -69.9399       4 -69.8667       5 -69.9096
       6 -70.0106       7 -69.8892       8 -69.8723       9 -69.8712      10 -69.8608
      11 -69.8664      12 -69.8979      13 -69.9609      14 -69.9072      15 -69.9497
      16 -69.9213      17 -69.9443      18 -69.9823      19 -69.9639      20 -69.9377
      21 -69.8808      22 -69.8367      23 -69.8836      24 -69.8859      25 -69.8505
      26 -69.9018      27 -69.9660      28 -63.9018      29 -63.9212      30 -64.0203
      31 -63.9224      32 -63.9939
 
 
 
 E-fermi :   9.3149     XC(G=0): -12.6738     alpha+bet :-14.5512


 k-point     1 :       0.0000    0.0000    0.0000
  band No.  band energies     occupation 
      1       0.9927      2.00000
      2       2.5390      2.00000
      3       2.5771      2.00000
      4       2.6313      2.00000
      5       2.6402      2.00000
      6       2.6666      2.00000
      7       2.6751      2.00000
      8       2.6985      2.00000
      9       2.8106      2.00000
     10       2.8180      2.00000
     11       2.8411      2.00000
     12       2.8584      2.00000
     13       2.9728      2.00000
     14       3.0282      2.00000
     15       3.0844      2.00000
     16       3.1025      2.00000
     17       3.1247      2.00000
     18       3.4248      2.00000
     19       3.4326      2.00000
     20       3.4696      2.00000
     21       3.4928      2.00000
     22       3.5430      2.00000
     23       3.5457      2.00000
     24       3.5672      2.00000
     25       3.5726      2.00000
     26       3.5958      2.00000
     27       3.6077      2.00000
     28       3.6168      2.00000
     29       3.6418      2.00000
     30       3.6644      2.00000
     31       3.7458      2.00000
     32       3.7617      2.00000
     33       3.7810      2.00000
     34       3.8023      2.00000
     35       3.8074      2.00000
     36       3.8183      2.00000
     37       3.8291      2.00000
     38       3.8327      2.00000
     39       3.8478      2.00000
     40       3.8651      2.00000
     41       3.9660      2.00000
     42       3.9982      2.00000
     43       4.0063      2.00000
     44       4.0199      2.00000
     45       4.0315      2.00000
     46       4.0382      2.00000
     47       4.0485      2.00000
     48       4.0574      2.00000
     49       4.0746      2.00000
     50       4.0859      2.00000
     51       4.0911      2.00000
     52       4.1186      2.00000
     53       4.1457      2.00000
     54       4.1543      2.00000
     55       4.1851      2.00000
     56       4.2055      2.00000
     57       4.2345      2.00000
     58       4.2468      2.00000
     59       4.2815      2.00000
     60       4.3220      2.00000
     61       4.3558      2.00000
     62       4.3941      2.00000
     63       4.4081      2.00000
     64       4.4159      2.00000
     65       4.4201      2.00000
     66       4.4260      2.00000
     67       4.4345      2.00000
     68       4.4412      2.00000
     69       4.4536      2.00000
     70       4.4716      2.00000
     71       4.4782      2.00000
     72       4.4890      2.00000
     73       4.5039      2.00000
     74       4.5293      2.00000
     75       4.5298      2.00000
     76       4.5442      2.00000
     77       4.5503      2.00000
     78       4.6023      2.00000
     79       4.6128      2.00000
     80       4.6259      2.00000
     81       4.6382      2.00000
     82       4.6565      2.00000
     83       4.6906      2.00000
     84       4.7212      2.00000
     85       4.7389      2.00000
     86       4.7594      2.00000
     87       4.8047      2.00000
     88       4.8879      2.00000
     89       5.1262      2.00000
     90       5.1375      2.00000
     91       5.1403      2.00000
     92       5.1454      2.00000
     93       5.1640      2.00000
     94       5.2408      2.00000
     95       5.2555      2.00000
     96       5.2651      2.00000
     97       5.2878      2.00000
     98       5.2957      2.00000
     99       5.3626      2.00000
    100       5.3640      2.00000
    101       5.3939      2.00000
    102       5.4005      2.00000
    103       5.4152      2.00000
    104       5.4352      2.00000
    105       5.4429      2.00000
    106       5.4488      2.00000
    107       5.4598      2.00000
    108       5.4642      2.00000
    109       5.4747      2.00000
    110       5.4942      2.00000
    111       5.5064      2.00000
    112       5.5431      2.00000
    113       5.5482      2.00000
    114       5.5612      2.00000
    115       5.5660      2.00000
    116       5.5853      2.00000
    117       5.6274      2.00000
    118       5.6619      2.00000
    119       5.6877      2.00000
    120       5.7121      2.00000
    121       5.7258      2.00000
    122       5.7687      2.00000
    123       5.7818      2.00000
    124       5.8016      2.00000
    125       5.8309      2.00000
    126       5.8652      2.00000
    127       5.8732      2.00000
    128       5.9178      2.00000
    129       5.9734      2.00000
    130       5.9862      2.00000
    131       6.0267      2.00000
    132       6.0486      2.00000
    133       6.0885      2.00000
    134       6.1189      2.00000
    135       6.1336      2.00000
    136       6.1947      2.00000
    137       6.2765      2.00000
    138       6.3514      2.00000
    139       6.4727      2.00000
    140       6.5453      2.00000
    141       6.6597      2.00000
    142       6.6797      2.00000
    143       6.6875      2.00000
    144       6.6920      2.00000
    145       6.7608      2.00000
    146       6.7737      2.00000
    147       6.8855      2.00000
    148       6.8931      2.00000
    149       6.9029      2.00000
    150       7.0786      2.00000
    151       7.1010      2.00000
    152       7.2092      2.00000
    153       7.3328      2.00000
    154       7.4335      2.00000
    155       7.4739      2.00000
    156       7.6542      2.00000
    157       7.7288      2.00000
    158       7.8149      2.00000
    159       7.8932      2.00000
    160       7.9631      2.00000
    161       7.9773      2.00000
    162       8.0202      2.00000
    163       8.0305      2.00000
    164       8.1347      2.00000
    165       8.1962      2.00000
    166       8.3687      2.00000
    167       8.5337      2.00000
    168       8.8815      2.00000
    169       8.9498      2.00000
    170       8.9542      2.00000
    171       8.9710      2.00001
    172       9.0559      2.00153
    173       9.1293      2.02473
    174       9.1686      2.05849
    175       9.2937      1.34993
    176       9.3912      0.04026
    177       9.4791     -0.04230
    178       9.6245     -0.00011
    179       9.6798     -0.00000
    180       9.8157     -0.00000
    181       9.9080     -0.00000
    182       9.9843     -0.00000
    183      10.0529     -0.00000
    184      11.0715     -0.00000
    185      11.0737     -0.00000
    186      11.0750     -0.00000
    187      13.3220      0.00000
    188      13.7308      0.00000
    189      13.7874      0.00000
    190      13.9307      0.00000
    191      15.6902      0.00000
    192      15.7405      0.00000
    193      15.8163      0.00000
    194      15.8365      0.00000
    195      15.8894      0.00000
    196      15.9271      0.00000
    197      15.9959      0.00000
    198      16.0437      0.00000
    199      16.0934      0.00000
    200      16.2022      0.00000
    201      16.2902      0.00000
    202      16.3859      0.00000
    203      16.4524      0.00000
    204      16.5355      0.00000
    205      16.6062      0.00000
    206      16.7944      0.00000
    207      16.8855      0.00000
    208      16.9091      0.00000

 k-point     2 :       0.2500    0.0000    0.0000
  band No.  band energies     occupation 
      1       1.1674      2.00000
      2       2.3668      2.00000
      3       2.6549      2.00000
      4       2.6848      2.00000
      5       2.7200      2.00000
      6       2.7402      2.00000
      7       2.7564      2.00000
      8       2.7708      2.00000
      9       2.7848      2.00000
     10       2.8730      2.00000
     11       2.8945      2.00000
     12       2.9258      2.00000
     13       2.9857      2.00000
     14       3.0865      2.00000
     15       3.1419      2.00000
     16       3.1938      2.00000
     17       3.2251      2.00000
     18       3.2770      2.00000
     19       3.2912      2.00000
     20       3.3622      2.00000
     21       3.3722      2.00000
     22       3.4144      2.00000
     23       3.4468      2.00000
     24       3.4802      2.00000
     25       3.5117      2.00000
     26       3.5479      2.00000
     27       3.5686      2.00000
     28       3.5792      2.00000
     29       3.5858      2.00000
     30       3.6091      2.00000
     31       3.6210      2.00000
     32       3.6389      2.00000
     33       3.6725      2.00000
     34       3.6809      2.00000
     35       3.6956      2.00000
     36       3.7430      2.00000
     37       3.7718      2.00000
     38       3.7897      2.00000
     39       3.8019      2.00000
     40       3.8054      2.00000
     41       3.8145      2.00000
     42       3.8379      2.00000
     43       3.9094      2.00000
     44       3.9349      2.00000
     45       3.9868      2.00000
     46       4.0277      2.00000
     47       4.0471      2.00000
     48       4.0723      2.00000
     49       4.0924      2.00000
     50       4.1137      2.00000
     51       4.1392      2.00000
     52       4.1491      2.00000
     53       4.1682      2.00000
     54       4.1881      2.00000
     55       4.1995      2.00000
     56       4.2266      2.00000
     57       4.2415      2.00000
     58       4.2471      2.00000
     59       4.2717      2.00000
     60       4.2902      2.00000
     61       4.3008      2.00000
     62       4.3282      2.00000
     63       4.3361      2.00000
     64       4.3513      2.00000
     65       4.3877      2.00000
     66       4.4047      2.00000
     67       4.4187      2.00000
     68       4.4407      2.00000
     69       4.4680      2.00000
     70       4.4764      2.00000
     71       4.4917      2.00000
     72       4.5238      2.00000
     73       4.5380      2.00000
     74       4.5566      2.00000
     75       4.5636      2.00000
     76       4.5737      2.00000
     77       4.6068      2.00000
     78       4.6296      2.00000
     79       4.6642      2.00000
     80       4.6973      2.00000
     81       4.7314      2.00000
     82       4.8043      2.00000
     83       4.8568      2.00000
     84       4.8851      2.00000
     85       4.9159      2.00000
     86       4.9269      2.00000
     87       4.9477      2.00000
     88       4.9646      2.00000
     89       4.9769      2.00000
     90       5.0007      2.00000
     91       5.0467      2.00000
     92       5.1048      2.00000
     93       5.1299      2.00000
     94       5.1566      2.00000
     95       5.1815      2.00000
     96       5.2201      2.00000
     97       5.2452      2.00000
     98       5.2806      2.00000
     99       5.2920      2.00000
    100       5.3008      2.00000
    101       5.3177      2.00000
    102       5.3593      2.00000
    103       5.3764      2.00000
    104       5.4103      2.00000
    105       5.4274      2.00000
    106       5.4464      2.00000
    107       5.4797      2.00000
    108       5.4894      2.00000
    109       5.5353      2.00000
    110       5.5536      2.00000
    111       5.5849      2.00000
    112       5.6079      2.00000
    113       5.6541      2.00000
    114       5.6921      2.00000
    115       5.7100      2.00000
    116       5.7196      2.00000
    117       5.7468      2.00000
    118       5.7816      2.00000
    119       5.7893      2.00000
    120       5.8365      2.00000
    121       5.8520      2.00000
    122       5.8794      2.00000
    123       5.9053      2.00000
    124       5.9414      2.00000
    125       5.9521      2.00000
    126       5.9681      2.00000
    127       6.0045      2.00000
    128       6.0225      2.00000
    129       6.0540      2.00000
    130       6.0726      2.00000
    131       6.1035      2.00000
    132       6.1257      2.00000
    133       6.1695      2.00000
    134       6.2000      2.00000
    135       6.2342      2.00000
    136       6.2641      2.00000
    137       6.3401      2.00000
    138       6.3639      2.00000
    139       6.3940      2.00000
    140       6.4684      2.00000
    141       6.4940      2.00000
    142       6.5168      2.00000
    143       6.6449      2.00000
    144       6.6883      2.00000
    145       6.7005      2.00000
    146       6.7925      2.00000
    147       6.8204      2.00000
    148       6.8753      2.00000
    149       6.9559      2.00000
    150       7.0684      2.00000
    151       7.1071      2.00000
    152       7.1696      2.00000
    153       7.3295      2.00000
    154       7.3775      2.00000
    155       7.4507      2.00000
    156       7.5468      2.00000
    157       7.6353      2.00000
    158       7.6951      2.00000
    159       7.7323      2.00000
    160       7.8124      2.00000
    161       7.8355      2.00000
    162       7.8900      2.00000
    163       7.9709      2.00000
    164       8.0204      2.00000
    165       8.0581      2.00000
    166       8.1184      2.00000
    167       8.2640      2.00000
    168       8.4842      2.00000
    169       8.7117      2.00000
    170       8.7792      2.00000
    171       8.9542      2.00000
    172       8.9823      2.00003
    173       9.0097      2.00014
    174       9.1804      2.06714
    175       9.2528      1.85879
    176       9.3231      0.86251
    177       9.4065     -0.02804
    178       9.6032     -0.00036
    179       9.9619     -0.00000
    180      10.1911     -0.00000
    181      10.6316     -0.00000
    182      10.7496     -0.00000
    183      10.8442     -0.00000
    184      10.8805     -0.00000
    185      11.6435     -0.00000
    186      11.6481     -0.00000
    187      13.7964      0.00000
    188      14.0240      0.00000
    189      14.0801      0.00000
    190      14.1459      0.00000
    191      14.2297      0.00000
    192      14.2864      0.00000
    193      14.3498      0.00000
    194      14.4201      0.00000
    195      14.5926      0.00000
    196      14.7139      0.00000
    197      16.0104      0.00000
    198      16.1368      0.00000
    199      16.3156      0.00000
    200      16.5979      0.00000
    201      16.6169      0.00000
    202      16.7514      0.00000
    203      16.8552      0.00000
    204      17.0615      0.00000
    205      17.1507      0.00000
    206      17.2169      0.00000
    207      17.3187      0.00000
    208      17.4014      0.00000

 k-point     3 :       0.5000    0.0000    0.0000
  band No.  band energies     occupation 
      1       1.6317      2.00000
      2       1.7066      2.00000
      3       2.8332      2.00000
      4       2.8636      2.00000
      5       2.9174      2.00000
      6       2.9302      2.00000
      7       2.9445      2.00000
      8       2.9501      2.00000
      9       2.9683      2.00000
     10       2.9802      2.00000
     11       3.0060      2.00000
     12       3.0077      2.00000
     13       3.0103      2.00000
     14       3.0190      2.00000
     15       3.0380      2.00000
     16       3.0560      2.00000
     17       3.0780      2.00000
     18       3.1423      2.00000
     19       3.1716      2.00000
     20       3.1865      2.00000
     21       3.2262      2.00000
     22       3.2506      2.00000
     23       3.2637      2.00000
     24       3.3699      2.00000
     25       3.4074      2.00000
     26       3.4753      2.00000
     27       3.5094      2.00000
     28       3.5122      2.00000
     29       3.5272      2.00000
     30       3.5489      2.00000
     31       3.6615      2.00000
     32       3.6770      2.00000
     33       3.6779      2.00000
     34       3.6940      2.00000
     35       3.7067      2.00000
     36       3.7090      2.00000
     37       3.7183      2.00000
     38       3.7306      2.00000
     39       3.7446      2.00000
     40       3.7793      2.00000
     41       3.7838      2.00000
     42       3.8127      2.00000
     43       3.8557      2.00000
     44       3.8635      2.00000
     45       3.8962      2.00000
     46       3.9163      2.00000
     47       4.0524      2.00000
     48       4.0676      2.00000
     49       4.0966      2.00000
     50       4.1040      2.00000
     51       4.1152      2.00000
     52       4.1218      2.00000
     53       4.1301      2.00000
     54       4.1496      2.00000
     55       4.1513      2.00000
     56       4.1616      2.00000
     57       4.1850      2.00000
     58       4.2370      2.00000
     59       4.2476      2.00000
     60       4.2672      2.00000
     61       4.2814      2.00000
     62       4.3108      2.00000
     63       4.3154      2.00000
     64       4.3261      2.00000
     65       4.3785      2.00000
     66       4.4012      2.00000
     67       4.4693      2.00000
     68       4.4922      2.00000
     69       4.4971      2.00000
     70       4.5065      2.00000
     71       4.5139      2.00000
     72       4.5216      2.00000
     73       4.5342      2.00000
     74       4.5399      2.00000
     75       4.5724      2.00000
     76       4.5975      2.00000
     77       4.6411      2.00000
     78       4.6442      2.00000
     79       4.6667      2.00000
     80       4.6792      2.00000
     81       4.6955      2.00000
     82       4.7087      2.00000
     83       4.7621      2.00000
     84       4.7747      2.00000
     85       4.8575      2.00000
     86       4.8878      2.00000
     87       4.9111      2.00000
     88       4.9338      2.00000
     89       4.9507      2.00000
     90       5.0224      2.00000
     91       5.1511      2.00000
     92       5.1686      2.00000
     93       5.3344      2.00000
     94       5.3662      2.00000
     95       5.3730      2.00000
     96       5.3895      2.00000
     97       5.4043      2.00000
     98       5.4347      2.00000
     99       5.4555      2.00000
    100       5.4882      2.00000
    101       5.5045      2.00000
    102       5.5118      2.00000
    103       5.5252      2.00000
    104       5.5323      2.00000
    105       5.5432      2.00000
    106       5.5512      2.00000
    107       5.5560      2.00000
    108       5.5631      2.00000
    109       5.5777      2.00000
    110       5.5814      2.00000
    111       5.5898      2.00000
    112       5.5991      2.00000
    113       5.6503      2.00000
    114       5.6716      2.00000
    115       5.7121      2.00000
    116       5.7260      2.00000
    117       5.7378      2.00000
    118       5.7555      2.00000
    119       5.7692      2.00000
    120       5.7926      2.00000
    121       5.8140      2.00000
    122       5.8340      2.00000
    123       5.8422      2.00000
    124       5.8798      2.00000
    125       5.9062      2.00000
    126       5.9315      2.00000
    127       6.0138      2.00000
    128       6.1029      2.00000
    129       6.1374      2.00000
    130       6.1620      2.00000
    131       6.1727      2.00000
    132       6.1784      2.00000
    133       6.1901      2.00000
    134       6.1924      2.00000
    135       6.1981      2.00000
    136       6.2196      2.00000
    137       6.2504      2.00000
    138       6.3749      2.00000
    139       6.3827      2.00000
    140       6.4793      2.00000
    141       6.5209      2.00000
    142       6.5373      2.00000
    143       6.6584      2.00000
    144       6.6832      2.00000
    145       6.6884      2.00000
    146       6.7047      2.00000
    147       6.7985      2.00000
    148       6.9699      2.00000
    149       7.0650      2.00000
    150       7.0769      2.00000
    151       7.1408      2.00000
    152       7.1924      2.00000
    153       7.2739      2.00000
    154       7.3571      2.00000
    155       7.4948      2.00000
    156       7.5142      2.00000
    157       7.5309      2.00000
    158       7.5948      2.00000
    159       7.6932      2.00000
    160       7.7139      2.00000
[...]
     93       4.2027      2.00000
     94       4.2162      2.00000
     95       4.2245      2.00000
     96       4.2343      2.00000
     97       4.2777      2.00000
     98       4.2795      2.00000
     99       4.3214      2.00000
    100       4.3328      2.00000
    101       4.3552      2.00000
    102       4.3651      2.00000
    103       4.3797      2.00000
    104       4.3852      2.00000
    105       4.3935      2.00000
    106       4.3989      2.00000
    107       4.4042      2.00000
    108       4.4133      2.00000
    109       4.4367      2.00000
    110       4.4957      2.00000
    111       4.5044      2.00000
    112       4.5174      2.00000
    113       4.5367      2.00000
    114       4.5446      2.00000
    115       4.5592      2.00000
    116       4.5642      2.00000
    117       4.5676      2.00000
    118       4.5899      2.00000
    119       4.6017      2.00000
    120       4.6413      2.00000
    121       4.6610      2.00000
    122       4.6952      2.00000
    123       4.7255      2.00000
    124       4.7567      2.00000
    125       4.7643      2.00000
    126       4.8038      2.00000
    127       4.8235      2.00000
    128       4.8467      2.00000
    129       4.8829      2.00000
    130       4.9277      2.00000
    131       4.9333      2.00000
    132       4.9652      2.00000
    133       4.9920      2.00000
    134       5.0519      2.00000
    135       5.0581      2.00000
    136       5.0693      2.00000
    137       5.1413      2.00000
    138       5.2697      2.00000
    139       5.3956      2.00000
    140       5.4046      2.00000
    141       5.4070      2.00000
    142       5.4201      2.00000
    143       5.4303      2.00000
    144       5.4386      2.00000
    145       5.5602      2.00000
    146       5.6539      2.00000
    147       5.7411      2.00000
    148       5.8120      2.00000
    149       5.8588      2.00000
    150       6.0093      2.00000
    151       6.1595      2.00000
    152       6.2080      2.00000
    153       6.2509      2.00000
    154       6.2928      2.00000
    155       6.4311      2.00000
    156       6.5612      2.00000
    157       6.5992      2.00000
    158       6.6310      2.00000
    159       6.6726      2.00000
    160       6.7216      2.00000
    161       6.7790      2.00000
    162       6.8735      2.00000
    163       6.9587      2.00000
    164       6.9984      2.00000
    165       7.0608      2.00000
    166       7.1125      2.00000
    167       7.1969      2.00000
    168       7.3726      2.00000
    169       9.1906     -0.00000
    170       9.2437     -0.00000
    171       9.3244     -0.00000
    172       9.3573     -0.00000
    173       9.3594     -0.00000
    174       9.3945     -0.00000
    175       9.4074     -0.00000
    176       9.4560     -0.00000
    177       9.5031     -0.00000
    178       9.5513     -0.00000
    179       9.5912     -0.00000
    180       9.6230     -0.00000
    181       9.6653     -0.00000
    182       9.7075     -0.00000
    183       9.7124     -0.00000
    184       9.7897     -0.00000
    185       9.8097     -0.00000
    186       9.8439     -0.00000
    187       9.9170     -0.00000
    188       9.9337     -0.00000
    189       9.9839     -0.00000
    190      10.0424     -0.00000
    191      10.1536     -0.00000
    192      10.1749     -0.00000
    193      14.0740      0.00000
    194      14.1418      0.00000
    195      14.2026      0.00000
    196      14.2580      0.00000
    197      14.3262      0.00000
    198      14.3573      0.00000
    199      14.3729      0.00000
    200      14.3810      0.00000
    201      14.3954      0.00000
    202      14.4205      0.00000
    203      14.4329      0.00000
    204      14.4501      0.00000
    205      14.4679      0.00000
    206      14.5833      0.00000
    207      14.6392      0.00000
    208      14.6910      0.00000


--------------------------------------------------------------------------------------------------------


 soft charge-density along one line, spin component           1
         0         1         2         3         4         5         6         7         8         9
 total charge-density along one line
 
 pseudopotential strength for first ion, spin component:           1
 -4.095   0.000  -0.004  -0.009   0.000  -4.324   0.000  -0.004
  0.000  -4.093  -0.003   0.005   0.006   0.000  -4.323  -0.003
 -0.004  -0.003  -4.085   0.000   0.008  -0.004  -0.003  -4.315
 -0.009   0.005   0.000  -4.099   0.000  -0.008   0.004   0.000
  0.000   0.006   0.008   0.000  -4.084   0.000   0.006   0.008
 -4.324   0.000  -0.004  -0.008   0.000  -4.519   0.000  -0.004
  0.000  -4.323  -0.003   0.004   0.006   0.000  -4.518  -0.003
 -0.004  -0.003  -4.315   0.000   0.008  -0.004  -0.003  -4.510
 -0.008   0.004   0.000  -4.328   0.000  -0.008   0.004   0.000
  0.000   0.006   0.008   0.000  -4.314   0.000   0.006   0.007
 -0.001   0.001   0.000  -0.000   0.001  -0.001   0.001   0.000
 -0.001   0.001   0.000  -0.000   0.001  -0.001   0.001   0.000
 -0.005   0.000   0.003  -0.000   0.005  -0.005   0.000   0.003
 -0.000  -0.004   0.000  -0.004   0.000  -0.000  -0.004   0.000
 -0.005  -0.000   0.003   0.000  -0.004  -0.005  -0.000   0.003
 -0.006   0.000   0.004  -0.000   0.006  -0.006   0.000   0.004
 -0.000  -0.006   0.000  -0.005   0.000  -0.000  -0.006   0.000
 -0.007  -0.000   0.004   0.000  -0.006  -0.006  -0.000   0.004
 total augmentation occupancy for first ion, spin component:           1
  3.653   0.002  -0.022  -0.186   0.007  -1.635  -0.001   0.029   0.153  -0.006  -0.031  -0.011  -0.037  -0.002  -0.038  -0.001
  0.002   3.657  -0.034   0.091   0.057  -0.001  -1.682   0.043  -0.074  -0.072   0.088   0.019   0.001  -0.026  -0.004  -0.000
 -0.022  -0.034   3.731  -0.005   0.164   0.029   0.043  -1.563   0.004  -0.123  -0.011   0.008   0.020   0.005   0.020   0.001
 -0.186   0.091  -0.005   3.769  -0.007   0.153  -0.074   0.004  -1.721   0.006   0.003  -0.001  -0.003  -0.018   0.000  -0.000
  0.007   0.057   0.164  -0.007   3.726  -0.006  -0.072  -0.123   0.006  -1.561   0.046   0.019   0.012   0.001  -0.015   0.001
 -1.635  -0.001   0.029   0.153  -0.006   1.550   0.000  -0.033  -0.123   0.004   0.036   0.000   0.036   0.002   0.037  -0.001
 -0.001  -1.682   0.043  -0.074  -0.072   0.000   1.633  -0.047   0.059   0.080  -0.096   0.003  -0.002   0.024   0.003   0.000
  0.029   0.043  -1.563   0.004  -0.123  -0.033  -0.047   1.358  -0.004   0.089   0.013  -0.007  -0.019  -0.005  -0.019   0.000
  0.153  -0.074   0.004  -1.721   0.006  -0.123   0.059  -0.004   1.617  -0.005  -0.002   0.001   0.002   0.017  -0.000  -0.000
 -0.006  -0.072  -0.123   0.006  -1.561   0.004   0.080   0.089  -0.005   1.359  -0.052  -0.004  -0.012   0.001   0.013   0.001
 -0.031   0.088  -0.011   0.003   0.046   0.036  -0.096   0.013  -0.002  -0.052   2.188  -0.424   0.016  -0.002   0.013  -0.002
 -0.011   0.019   0.008  -0.001   0.019   0.000   0.003  -0.007   0.001  -0.004  -0.424   0.096  -0.003   0.000  -0.002   0.000
 -0.037   0.001   0.020  -0.003   0.012   0.036  -0.002  -0.019   0.002  -0.012   0.016  -0.003   0.186  -0.013   0.007  -0.011
 -0.002  -0.026   0.005  -0.018   0.001   0.002   0.024  -0.005   0.017   0.001  -0.002   0.000  -0.013   0.178   0.000   0.001
 -0.038  -0.004   0.020   0.000  -0.015   0.037   0.003  -0.019  -0.000   0.013   0.013  -0.002   0.007   0.000   0.169  -0.000
 -0.001  -0.000   0.001  -0.000   0.001  -0.001   0.000   0.000  -0.000   0.001  -0.002   0.000  -0.011   0.001  -0.000   0.001
 -0.000  -0.000   0.000  -0.000   0.000   0.000  -0.001   0.000  -0.001  -0.000   0.000  -0.000   0.001  -0.011   0.000  -0.000
 -0.001  -0.000   0.001   0.000  -0.001  -0.001   0.000   0.000   0.000  -0.000  -0.002   0.000  -0.000   0.000  -0.010   0.000


------------------------ aborting loop because EDIFF is reached ----------------------------------------


    CHARGE:  cpu time    2.8546: real time    2.8547
    FORLOC:  cpu time    0.0380: real time    0.0376
    FORNL :  cpu time   59.1520: real time   59.1802
    STRESS:  cpu time   45.4951: real time   45.5136
    FORCOR:  cpu time    0.1630: real time    0.1622
    FORHAR:  cpu time    0.0610: real time    0.0617
    MIXING:  cpu time    0.0040: real time    0.0034
    OFIELD:  cpu time    0.0000: real time    0.0001

  FORCE on cell =-STRESS in cart. coord.  units (eV):
  Direction    XX          YY          ZZ          XY          YZ          ZX
  --------------------------------------------------------------------------------------
  Alpha Z  1607.01145  1607.01145  1607.01145
  Ewald  -10097.07409-10087.59479-10088.52320     7.20558     7.16862    -3.51941
  Hartree  1861.91604  1865.59510  1865.91381     3.45240     2.83865    -1.02701
  E(xc)   -1790.92753 -1790.94539 -1790.93409     0.03314     0.02904    -0.00861
  Local    1474.05796  1461.73032  1462.66896    -9.42304    -8.91471     4.31696
  n-local  -222.61778  -222.17724  -222.50093     0.11237     0.04684    -0.12119
  augment  2750.69025  2750.15355  2750.13653    -0.52011    -0.39285     0.11282
  Kinetic  4417.37308  4416.46061  4416.53271    -0.79483    -0.70601     0.24813
  Fock        0.00000     0.00000     0.00000     0.00000     0.00000     0.00000
  -------------------------------------------------------------------------------------
  Total       0.42940     0.23361     0.30524     0.06551     0.06957     0.00168
  in kB       1.24307     0.67629     0.88366     0.18965     0.20139     0.00485
  external pressure =        0.93 kB  Pullay stress =        0.00 kB


 VOLUME and BASIS-vectors are now :
 -----------------------------------------------------------------------------
  energy-cutoff  :      300.00
  volume of cell :      553.44
      direct lattice vectors                 reciprocal lattice vectors
     8.238306872 -0.004332089  0.003102997     0.121384216  0.000063987 -0.000045858
    -0.004320058  8.191641261 -0.004983540     0.000064165  0.122075737  0.000074155
     0.003100852 -0.004983311  8.200929498    -0.000045889  0.000074159  0.121937460

  length of vectors
     8.238308596  8.191643916  8.200931598     0.121384241  0.122075777  0.121937491


 FORCES acting on ions
    electron-ion (+dipol)            ewald-force                    non-local-force                 convergence-correction
 -----------------------------------------------------------------------------------------------
   0.334E+01 0.579E+01 -.231E+01   -.300E+01 -.538E+01 0.230E+01   -.369E+00 -.455E+00 0.322E-01   0.246E-01 0.335E-01 -.172E-01
   0.198E+01 0.423E+01 0.304E+01   -.200E+01 -.416E+01 -.303E+01   0.884E-02 -.974E-01 -.294E-01   0.897E-02 0.245E-01 0.167E-01
   0.446E+01 0.214E+01 -.561E+01   -.403E+01 -.210E+01 0.514E+01   -.461E+00 -.509E-01 0.506E+00   0.254E-01 0.713E-02 -.292E-01
   0.226E+01 -.445E+01 -.218E+01   -.197E+01 0.412E+01 0.222E+01   -.316E+00 0.382E+00 -.188E-01   0.267E-01 -.334E-01 -.166E-01
   0.308E+01 -.457E+01 0.375E+01   -.309E+01 0.450E+01 -.375E+01   -.800E-02 0.104E+00 -.297E-01   0.530E-02 -.226E-01 0.125E-01
   0.382E+01 -.295E+01 0.436E+01   -.381E+01 0.292E+01 -.434E+01   -.314E-01 0.399E-01 -.436E-01   0.300E-02 -.925E-03 0.114E-01
   -.162E+01 0.498E+01 -.631E+01   0.122E+01 -.501E+01 0.597E+01   0.399E+00 -.201E-02 0.382E+00   0.855E-02 0.322E-01 -.307E-01
   0.161E+00 0.628E+01 0.386E+01   -.161E+00 -.527E+01 -.355E+01   -.410E-02 -.107E+01 -.343E+00   0.713E-02 0.422E-01 0.300E-01
   0.578E+00 0.212E+01 0.409E+01   -.603E+00 -.215E+01 -.333E+01   0.211E-01 0.255E-01 -.787E+00   0.480E-02 0.683E-02 0.272E-01
   0.594E-01 -.392E+01 -.698E+01   -.790E-01 0.394E+01 0.630E+01   0.566E-02 0.592E-02 0.732E+00   0.163E-01 -.344E-01 -.393E-01
   0.494E+00 -.368E+01 0.416E+01   -.247E+00 0.275E+01 -.360E+01   -.263E+00 0.984E+00 -.611E+00   0.124E-01 -.377E-01 0.359E-01
   0.849E-01 -.358E+01 -.244E+01   -.140E+00 0.322E+01 0.287E+01   0.414E-01 0.377E+00 -.424E+00   0.135E-01 -.187E-01 -.996E-02
   -.214E+01 -.322E+01 0.314E+01   0.172E+01 0.317E+01 -.347E+01   0.414E+00 0.629E-01 0.323E+00   0.590E-02 -.166E-02 -.354E-03
   -.357E+01 0.510E+01 -.349E+01   0.327E+01 -.434E+01 0.312E+01   0.333E+00 -.809E+00 0.390E+00   -.234E-01 0.394E-01 -.142E-01
   -.272E+01 0.828E+01 0.604E+01   0.271E+01 -.772E+01 -.555E+01   0.264E-01 -.590E+00 -.506E+00   -.693E-02 0.195E-01 0.168E-01
   -.356E+01 0.257E+01 -.464E+01   0.322E+01 -.223E+01 0.390E+01   0.365E+00 -.354E+00 0.787E+00   -.224E-01 0.124E-01 -.388E-01
   -.277E+01 -.669E+01 0.459E+01   0.280E+01 0.625E+01 -.417E+01   -.204E-01 0.467E+00 -.440E+00   -.777E-02 -.211E-01 0.175E-01
   -.242E+01 -.517E+01 -.705E+01   0.239E+01 0.470E+01 0.656E+01   0.437E-01 0.486E+00 0.523E+00   -.899E-02 -.193E-01 -.221E-01
   -.328E+01 -.342E+01 0.606E+01   0.330E+01 0.304E+01 -.567E+01   -.161E-01 0.400E+00 -.426E+00   -.650E-02 -.185E-01 0.217E-01
   0.247E+01 0.244E+01 -.442E+01   -.207E+01 -.280E+01 0.437E+01   -.393E+00 0.347E+00 0.634E-01   -.387E-02 0.123E-01 -.110E-01
   -.212E+00 0.834E+01 0.342E+01   0.214E+00 -.755E+01 -.345E+01   0.324E-02 -.821E+00 0.105E-01   -.516E-02 0.268E-01 0.174E-01
   0.334E+00 0.278E+01 -.410E+01   -.611E+00 -.246E+01 0.342E+01   0.292E+00 -.342E+00 0.707E+00   -.157E-01 0.131E-01 -.137E-01
   -.793E+00 0.196E+01 0.762E+01   0.812E+00 -.194E+01 -.673E+01   -.124E-01 -.294E-01 -.915E+00   -.737E-03 0.691E-02 0.219E-01
   -.272E+00 -.231E+01 -.659E+01   0.328E+00 0.272E+01 0.622E+01   -.416E-01 -.392E+00 0.401E+00   -.175E-01 -.201E-01 -.219E-01
   -.127E+01 -.580E+01 0.473E+01   0.952E+00 0.508E+01 -.441E+01   0.332E+00 0.745E+00 -.347E+00   -.145E-01 -.258E-01 0.255E-01
   -.493E+00 -.480E+01 -.199E+01   0.434E+00 0.437E+01 0.233E+01   0.705E-01 0.454E+00 -.326E+00   -.157E-01 -.167E-01 -.113E-01
   0.275E+01 -.226E+01 0.646E+00   -.232E+01 0.224E+01 -.103E+01   -.420E+00 0.276E-01 0.370E+00   -.621E-02 -.578E-02 0.796E-02
   0.353E+01 0.109E+01 0.531E+01   -.353E+01 -.114E+01 -.529E+01   -.211E-01 0.407E-01 -.431E-01   0.311E-01 0.774E-02 0.321E-01
   0.147E+01 -.124E+01 -.292E+01   -.151E+01 0.127E+01 0.295E+01   0.294E-01 -.190E-01 -.134E-01   0.629E-02 -.542E-02 -.114E-01
   0.293E+01 0.470E+01 -.619E+01   -.284E+01 -.471E+01 0.614E+01   -.111E+00 -.591E-02 0.704E-01   0.179E-01 0.207E-01 -.294E-01
   -.323E+01 0.395E+01 0.702E+01   0.320E+01 -.388E+01 -.691E+01   0.541E-01 -.895E-01 -.156E+00   -.316E-01 0.196E-01 0.436E-01
   -.544E+01 -.871E+01 -.455E+01   0.545E+01 0.853E+01 0.448E+01   0.114E-01 0.229E+00 0.821E-01   -.301E-01 -.433E-01 -.197E-01
 -----------------------------------------------------------------------------------------------
   0.380E-01 -.508E-01 0.791E-01   0.299E-12 -.213E-13 0.359E-12   -.379E-01 0.517E-01 -.801E-01   0.691E-03 -.729E-03 0.112E-02
 
 
 POSITION                                       TOTAL-FORCE (eV/Angst)
 -----------------------------------------------------------------------------------
      0.01560      0.01509     -0.00325        -0.003348     -0.013876      0.003870
      0.00485      0.01019      4.10682        -0.001547      0.000729     -0.002192
      0.02047      2.05065      2.02987        -0.003108     -0.004665      0.006486
      0.00828      4.08452     -0.00335        -0.001228      0.014502      0.002998
     -0.00062      4.08118      4.10061        -0.008341      0.009351     -0.009077
     -0.00182      6.14165      6.15235        -0.011304      0.012233     -0.014314
      2.05211      0.01029      2.02595         0.004557     -0.000701      0.004050
      2.06540      0.02515      6.16529         0.002915     -0.017372     -0.004465
      2.06144      2.04723      4.12557         0.000243     -0.001889      0.000445
      2.05907      4.08345      2.01972         0.002367     -0.002328      0.011536
      2.05967      4.07803      6.15936        -0.003259      0.017088     -0.011223
      2.05567      6.12748      0.00428        -0.000742      0.002285     -0.000718
      2.04732      6.14099      4.08103        -0.000000      0.011270     -0.015320
      4.10572      0.02056     -0.00883         0.005949     -0.006906      0.006285
      4.11804      0.01751      4.12360         0.008138     -0.011251     -0.004912
      4.10788      2.05066      2.03206         0.006912     -0.009876      0.010712
      4.11648      4.06959      4.11679         0.005185      0.007261     -0.003379
      4.11257      6.11734      2.02649         0.004474      0.000356      0.006693
      4.11788      6.12272      6.16707         0.004385      0.002848     -0.011207
      6.19344     -0.01235      2.04725         0.000724     -0.007166      0.009568
      6.17883      0.02906      6.16206        -0.000468     -0.007510      0.001533
      6.17452      2.05417     -0.01467        -0.001605     -0.006996      0.014174
      6.18167      2.04626      4.13591         0.005839     -0.004081     -0.005948
      6.17216      4.09186      2.02828        -0.003895     -0.003698      0.009355
      6.17025      4.06180      6.16903         0.003352      0.004780     -0.000890
      6.16973      6.12037      0.00174        -0.003413      0.004069      0.003566
      6.18830      6.13456      4.08911        -0.002865      0.001979     -0.001718
      0.02534      2.04664      6.17722         0.004813      0.000168      0.000668
     -0.00107      6.14120      2.04390        -0.007624      0.002484      0.006117
      2.07465      2.07007     -0.04012         0.003235      0.004475     -0.011343
      4.10148      2.06307      6.18946        -0.006164      0.003253      0.000711
      4.08974      4.04694     -0.02204        -0.004177     -0.000816     -0.002060
 -----------------------------------------------------------------------------------
    total drift:                                0.000866      0.000166      0.000141


--------------------------------------------------------------------------------------------------------



  FREE ENERGIE OF THE ION-ELECTRON SYSTEM (eV)
  ---------------------------------------------------
  free  energy   TOTEN  =      -104.14153046 eV

  energy  without entropy=     -104.14036422  energy(sigma->0) =     -104.14114172
 
 d Force = 0.1135714E-03[ 0.940E-04, 0.133E-03]  d Energy =-0.1533016E-04 0.129E-03
 d Force = 0.4566328E-02[ 0.357E-02, 0.556E-02]  d Ewald  = 0.3145968E+01-0.314E+01


--------------------------------------------------------------------------------------------------------


    POTLOK:  cpu time    0.1520: real time    0.1527


--------------------------------------------------------------------------------------------------------




--------------------------------------------------------------------------------------------------------


  
 reached required accuracy - stopping structural energy minimisation
     LOOP+:  cpu time  277.9098: real time  278.1160
    4ORBIT:  cpu time    0.0000: real time    0.0000

 total amount of memory used by VASP on root node   272276. kBytes
========================================================================

   base      :      30000. kBytes
   nonl-proj :      16885. kBytes
   fftplans  :       8388. kBytes
   grid      :      13685. kBytes
   one-center:        124. kBytes
   wavefun   :     203194. kBytes
 
  
  
 General timing and accounting informations for this job:
 ========================================================
  
                  Total CPU time used (sec):     4568.719
                            User time (sec):     4561.314
                          System time (sec):        7.406
                         Elapsed time (sec):     4576.915
  
                   Maximum memory used (kb):      301964.
                   Average memory used (kb):           0.
  
                          Minor page faults:        50713
                          Major page faults:            0
                 Voluntary context switches:         5694
