BEGIN_CFG
Size
  48
Supercell
  8.6466000000 0.0000000000 0.0000000000
  -4.3233000000 7.4881752564 0.0000000000
  0.0000000000 0.0000000000 7.4908000000
AtomData:  id type       cartes_x      cartes_y      cartes_z
       1    1     0.72101836     1.24884043     1.87270000
       2    1     0.72101836     1.24884043     5.61810000
       3    1    -1.44063164     4.99292806     1.87270000
       4    1    -1.44063164     4.99292806     5.61810000
       5    1     5.04431836     1.24884043     1.87270000
       6    1     5.04431836     1.24884043     5.61810000
       7    1     2.88266836     4.99292806     1.87270000
       8    1     2.88266836     4.99292806     5.61810000
       9    1     2.88126328     0.00000000     1.87270000
      10    1     2.88126328     0.00000000     5.61810000
      11    1     0.71961329     3.74408763     1.87270000
      12    1     0.71961329     3.74408763     5.61810000
      13    1     7.20456328     0.00000000     1.87270000
      14    1     7.20456328     0.00000000     5.61810000
      15    1     5.04291329     3.74408763     1.87270000
      16    1     5.04291329     3.74408763     5.61810000
      17    1    -1.44063164     2.49524720     1.87270000
      18    1    -1.44063164     2.49524720     5.61810000
      19    1    -3.60228164     6.23933483     1.87270000
      20    1    -3.60228164     6.23933483     5.61810000
      21    1     2.88266836     2.49524720     1.87270000
      22    1     2.88266836     2.49524720     5.61810000
      23    1     0.72101836     6.23933483     1.87270000
      24    1     0.72101836     6.23933483     5.61810000
      25    1     1.44063164     2.49524720     1.87270000
      26    1     1.44063164     2.49524720     5.61810000
      27    1    -0.72101836     6.23933483     1.87270000
      28    1    -0.72101836     6.23933483     5.61810000
      29    1     5.76393164     2.49524720     1.87270000
      30    1     5.76393164     2.49524720     5.61810000
      31    1     3.60228164     6.23933483     1.87270000
      32    1     3.60228164     6.23933483     5.61810000
      33    1     1.44203671     0.00000000     1.87270000
      34    1     1.44203671     0.00000000     5.61810000
      35    1    -0.71961328     3.74408763     1.87270000
      36    1    -0.71961328     3.74408763     5.61810000
      37    1     5.76533671     0.00000000     1.87270000
      38    1     5.76533671     0.00000000     5.61810000
      39    1     3.60368671     3.74408763     1.87270000
      40    1     3.60368671     3.74408763     5.61810000
      41    1    -0.72101836     1.24884043     1.87270000
      42    1    -0.72101836     1.24884043     5.61810000
      43    1    -2.88266836     4.99292806     1.87270000
      44    1    -2.88266836     4.99292806     5.61810000
      45    1     3.60228164     1.24884043     1.87270000
      46    1     3.60228164     1.24884043     5.61810000
      47    1     1.44063164     4.99292806     1.87270000
      48    1     1.44063164     4.99292806     5.61810000
Feature   SOC0.0000_nLi00_AA_rank00001
END_CFG

BEGIN_CFG
Size
  48
Supercell
  8.6466000000 0.0000000000 0.0000000000
  -4.3233000000 7.4881752564 0.0000000000
  0.0000000000 0.0000000000 7.4908000000
AtomData:  id type       cartes_x      cartes_y      cartes_z
       1    1     0.72101836     1.24884043     1.87270000
       2    1     1.44203671     0.00000000     5.61810000
       3    1    -1.44063164     4.99292806     1.87270000
       4    1    -0.71961328     3.74408763     5.61810000
       5    1     5.04431836     1.24884043     1.87270000
       6    1     5.76533671     0.00000000     5.61810000
       7    1     2.88266836     4.99292806     1.87270000
       8    1     3.60368671     3.74408763     5.61810000
       9    1     2.88126328     0.00000000     1.87270000
      10    1    -0.72101836     6.23933483     5.61810000
      11    1     0.71961329     3.74408763     1.87270000
      12    1     1.44063164     2.49524720     5.61810000
      13    1     7.20456328     0.00000000     1.87270000
      14    1     3.60228164     6.23933483     5.61810000
      15    1     5.04291329     3.74408763     1.87270000
      16    1     5.76393164     2.49524720     5.61810000
      17    1    -1.44063164     2.49524720     1.87270000
      18    1    -0.71961329     1.24640677     5.61810000
      19    1    -3.60228164     6.23933483     1.87270000
      20    1    -2.88126328     4.99049440     5.61810000
      21    1     2.88266836     2.49524720     1.87270000
      22    1     3.60368671     1.24640677     5.61810000
      23    1     0.72101836     6.23933483     1.87270000
      24    1     1.44203672     4.99049440     5.61810000
      25    1     1.44063164     2.49524720     1.87270000
      26    1     2.16165000     1.24640677     5.61810000
      27    1    -0.72101836     6.23933483     1.87270000
      28    1     0.00000000     4.99049440     5.61810000
      29    1     5.76393164     2.49524720     1.87270000
      30    1     6.48495000     1.24640677     5.61810000
      31    1     3.60228164     6.23933483     1.87270000
      32    1     4.32330000     4.99049440     5.61810000
      33    1     1.44203671     0.00000000     1.87270000
      34    1    -2.16024493     6.23933483     5.61810000
      35    1    -0.71961328     3.74408763     1.87270000
      36    1     0.00140507     2.49524720     5.61810000
      37    1     5.76533671     0.00000000     1.87270000
      38    1     2.16305507     6.23933483     5.61810000
      39    1     3.60368671     3.74408763     1.87270000
      40    1     4.32470507     2.49524720     5.61810000
      41    1    -0.72101836     1.24884043     1.87270000
      42    1    -0.00000000     0.00000000     5.61810000
      43    1    -2.88266836     4.99292806     1.87270000
      44    1    -2.16165000     3.74408763     5.61810000
      45    1     3.60228164     1.24884043     1.87270000
      46    1     4.32330000     0.00000000     5.61810000
      47    1     1.44063164     4.99292806     1.87270000
      48    1     2.16165000     3.74408763     5.61810000
Feature   SOC0.0000_nLi00_AB_rank00002
END_CFG

BEGIN_CFG
Size
  49
Supercell
  8.6466000000 0.0000000000 0.0000000000
  -4.3233000000 7.4881752564 0.0000000000
  0.0000000000 0.0000000000 7.4908000000
AtomData:  id type       cartes_x      cartes_y      cartes_z
       1    0     0.00000000     0.00000000     0.00000000
       2    1     0.72101836     1.24884043     1.87270000
       3    1     1.44203671     0.00000000     5.61810000
       4    1    -1.44063164     4.99292806     1.87270000
       5    1    -0.71961328     3.74408763     5.61810000
       6    1     5.04431836     1.24884043     1.87270000
       7    1     5.76533671     0.00000000     5.61810000
       8    1     2.88266836     4.99292806     1.87270000
       9    1     3.60368671     3.74408763     5.61810000
      10    1     2.88126328     0.00000000     1.87270000
      11    1    -0.72101836     6.23933483     5.61810000
      12    1     0.71961329     3.74408763     1.87270000
      13    1     1.44063164     2.49524720     5.61810000
      14    1     7.20456328     0.00000000     1.87270000
      15    1     3.60228164     6.23933483     5.61810000
      16    1     5.04291329     3.74408763     1.87270000
      17    1     5.76393164     2.49524720     5.61810000
      18    1    -1.44063164     2.49524720     1.87270000
      19    1    -0.71961329     1.24640677     5.61810000
      20    1    -3.60228164     6.23933483     1.87270000
      21    1    -2.88126328     4.99049440     5.61810000
      22    1     2.88266836     2.49524720     1.87270000
      23    1     3.60368671     1.24640677     5.61810000
      24    1     0.72101836     6.23933483     1.87270000
      25    1     1.44203672     4.99049440     5.61810000
      26    1     1.44063164     2.49524720     1.87270000
      27    1     2.16165000     1.24640677     5.61810000
      28    1    -0.72101836     6.23933483     1.87270000
      29    1     0.00000000     4.99049440     5.61810000
      30    1     5.76393164     2.49524720     1.87270000
      31    1     6.48495000     1.24640677     5.61810000
      32    1     3.60228164     6.23933483     1.87270000
      33    1     4.32330000     4.99049440     5.61810000
      34    1     1.44203671     0.00000000     1.87270000
      35    1    -2.16024493     6.23933483     5.61810000
      36    1    -0.71961328     3.74408763     1.87270000
      37    1     0.00140507     2.49524720     5.61810000
      38    1     5.76533671     0.00000000     1.87270000
      39    1     2.16305507     6.23933483     5.61810000
      40    1     3.60368671     3.74408763     1.87270000
      41    1     4.32470507     2.49524720     5.61810000
      42    1    -0.72101836     1.24884043     1.87270000
      43    1    -0.00000000     0.00000000     5.61810000
      44    1    -2.88266836     4.99292806     1.87270000
      45    1    -2.16165000     3.74408763     5.61810000
      46    1     3.60228164     1.24884043     1.87270000
      47    1     4.32330000     0.00000000     5.61810000
      48    1     1.44063164     4.99292806     1.87270000
      49    1     2.16165000     3.74408763     5.61810000
Feature   SOC0.1250_nLi01_AB_rank00001
END_CFG

BEGIN_CFG
Size
  49
Supercell
  8.6466000000 0.0000000000 0.0000000000
  -4.3233000000 7.4881752564 0.0000000000
  0.0000000000 0.0000000000 7.4908000000
AtomData:  id type       cartes_x      cartes_y      cartes_z
       1    0     0.00000000     0.00000000     0.00000000
       2    1     0.72101836     1.24884043     1.87270000
       3    1     0.72101836     1.24884043     5.61810000
       4    1    -1.44063164     4.99292806     1.87270000
       5    1    -1.44063164     4.99292806     5.61810000
       6    1     5.04431836     1.24884043     1.87270000
       7    1     5.04431836     1.24884043     5.61810000
       8    1     2.88266836     4.99292806     1.87270000
       9    1     2.88266836     4.99292806     5.61810000
      10    1     2.88126328     0.00000000     1.87270000
      11    1     2.88126328     0.00000000     5.61810000
      12    1     0.71961329     3.74408763     1.87270000
      13    1     0.71961329     3.74408763     5.61810000
      14    1     7.20456328     0.00000000     1.87270000
      15    1     7.20456328     0.00000000     5.61810000
      16    1     5.04291329     3.74408763     1.87270000
      17    1     5.04291329     3.74408763     5.61810000
      18    1    -1.44063164     2.49524720     1.87270000
      19    1    -1.44063164     2.49524720     5.61810000
      20    1    -3.60228164     6.23933483     1.87270000
      21    1    -3.60228164     6.23933483     5.61810000
      22    1     2.88266836     2.49524720     1.87270000
      23    1     2.88266836     2.49524720     5.61810000
      24    1     0.72101836     6.23933483     1.87270000
      25    1     0.72101836     6.23933483     5.61810000
      26    1     1.44063164     2.49524720     1.87270000
      27    1     1.44063164     2.49524720     5.61810000
      28    1    -0.72101836     6.23933483     1.87270000
      29    1    -0.72101836     6.23933483     5.61810000
      30    1     5.76393164     2.49524720     1.87270000
      31    1     5.76393164     2.49524720     5.61810000
      32    1     3.60228164     6.23933483     1.87270000
      33    1     3.60228164     6.23933483     5.61810000
      34    1     1.44203671     0.00000000     1.87270000
      35    1     1.44203671     0.00000000     5.61810000
      36    1    -0.71961328     3.74408763     1.87270000
      37    1    -0.71961328     3.74408763     5.61810000
      38    1     5.76533671     0.00000000     1.87270000
      39    1     5.76533671     0.00000000     5.61810000
      40    1     3.60368671     3.74408763     1.87270000
      41    1     3.60368671     3.74408763     5.61810000
      42    1    -0.72101836     1.24884043     1.87270000
      43    1    -0.72101836     1.24884043     5.61810000
      44    1    -2.88266836     4.99292806     1.87270000
      45    1    -2.88266836     4.99292806     5.61810000
      46    1     3.60228164     1.24884043     1.87270000
      47    1     3.60228164     1.24884043     5.61810000
      48    1     1.44063164     4.99292806     1.87270000
      49    1     1.44063164     4.99292806     5.61810000
Feature   SOC0.1250_nLi01_AA_rank00002
END_CFG

BEGIN_CFG
Size
  50
Supercell
  8.6466000000 0.0000000000 0.0000000000
  -4.3233000000 7.4881752564 0.0000000000
  0.0000000000 0.0000000000 7.4908000000
AtomData:  id type       cartes_x      cartes_y      cartes_z
       1    0     0.00000000     0.00000000     0.00000000
       2    0    -2.16165000     3.74408763     3.74540000
       3    1     0.72101836     1.24884043     1.87270000
       4    1     1.44203671     0.00000000     5.61810000
       5    1    -1.44063164     4.99292806     1.87270000
       6    1    -0.71961328     3.74408763     5.61810000
       7    1     5.04431836     1.24884043     1.87270000
       8    1     5.76533671     0.00000000     5.61810000
       9    1     2.88266836     4.99292806     1.87270000
      10    1     3.60368671     3.74408763     5.61810000
      11    1     2.88126328     0.00000000     1.87270000
      12    1    -0.72101836     6.23933483     5.61810000
      13    1     0.71961329     3.74408763     1.87270000
      14    1     1.44063164     2.49524720     5.61810000
      15    1     7.20456328     0.00000000     1.87270000
      16    1     3.60228164     6.23933483     5.61810000
      17    1     5.04291329     3.74408763     1.87270000
      18    1     5.76393164     2.49524720     5.61810000
      19    1    -1.44063164     2.49524720     1.87270000
      20    1    -0.71961329     1.24640677     5.61810000
      21    1    -3.60228164     6.23933483     1.87270000
      22    1    -2.88126328     4.99049440     5.61810000
      23    1     2.88266836     2.49524720     1.87270000
      24    1     3.60368671     1.24640677     5.61810000
      25    1     0.72101836     6.23933483     1.87270000
      26    1     1.44203672     4.99049440     5.61810000
      27    1     1.44063164     2.49524720     1.87270000
      28    1     2.16165000     1.24640677     5.61810000
      29    1    -0.72101836     6.23933483     1.87270000
      30    1     0.00000000     4.99049440     5.61810000
      31    1     5.76393164     2.49524720     1.87270000
      32    1     6.48495000     1.24640677     5.61810000
      33    1     3.60228164     6.23933483     1.87270000
      34    1     4.32330000     4.99049440     5.61810000
      35    1     1.44203671     0.00000000     1.87270000
      36    1    -2.16024493     6.23933483     5.61810000
      37    1    -0.71961328     3.74408763     1.87270000
      38    1     0.00140507     2.49524720     5.61810000
      39    1     5.76533671     0.00000000     1.87270000
      40    1     2.16305507     6.23933483     5.61810000
      41    1     3.60368671     3.74408763     1.87270000
      42    1     4.32470507     2.49524720     5.61810000
      43    1    -0.72101836     1.24884043     1.87270000
      44    1    -0.00000000     0.00000000     5.61810000
      45    1    -2.88266836     4.99292806     1.87270000
      46    1    -2.16165000     3.74408763     5.61810000
      47    1     3.60228164     1.24884043     1.87270000
      48    1     4.32330000     0.00000000     5.61810000
      49    1     1.44063164     4.99292806     1.87270000
      50    1     2.16165000     3.74408763     5.61810000
Feature   SOC0.2500_nLi02_AB_rank00001
END_CFG

BEGIN_CFG
Size
  50
Supercell
  8.6466000000 0.0000000000 0.0000000000
  -4.3233000000 7.4881752564 0.0000000000
  0.0000000000 0.0000000000 7.4908000000
AtomData:  id type       cartes_x      cartes_y      cartes_z
       1    0     0.00000000     0.00000000     0.00000000
       2    0    -2.16165000     3.74408763     3.74540000
       3    1     0.72101836     1.24884043     1.87270000
       4    1     0.72101836     1.24884043     5.61810000
       5    1    -1.44063164     4.99292806     1.87270000
       6    1    -1.44063164     4.99292806     5.61810000
       7    1     5.04431836     1.24884043     1.87270000
       8    1     5.04431836     1.24884043     5.61810000
       9    1     2.88266836     4.99292806     1.87270000
      10    1     2.88266836     4.99292806     5.61810000
      11    1     2.88126328     0.00000000     1.87270000
      12    1     2.88126328     0.00000000     5.61810000
      13    1     0.71961329     3.74408763     1.87270000
      14    1     0.71961329     3.74408763     5.61810000
      15    1     7.20456328     0.00000000     1.87270000
      16    1     7.20456328     0.00000000     5.61810000
      17    1     5.04291329     3.74408763     1.87270000
      18    1     5.04291329     3.74408763     5.61810000
      19    1    -1.44063164     2.49524720     1.87270000
      20    1    -1.44063164     2.49524720     5.61810000
      21    1    -3.60228164     6.23933483     1.87270000
      22    1    -3.60228164     6.23933483     5.61810000
      23    1     2.88266836     2.49524720     1.87270000
      24    1     2.88266836     2.49524720     5.61810000
      25    1     0.72101836     6.23933483     1.87270000
      26    1     0.72101836     6.23933483     5.61810000
      27    1     1.44063164     2.49524720     1.87270000
      28    1     1.44063164     2.49524720     5.61810000
      29    1    -0.72101836     6.23933483     1.87270000
      30    1    -0.72101836     6.23933483     5.61810000
      31    1     5.76393164     2.49524720     1.87270000
      32    1     5.76393164     2.49524720     5.61810000
      33    1     3.60228164     6.23933483     1.87270000
      34    1     3.60228164     6.23933483     5.61810000
      35    1     1.44203671     0.00000000     1.87270000
      36    1     1.44203671     0.00000000     5.61810000
      37    1    -0.71961328     3.74408763     1.87270000
      38    1    -0.71961328     3.74408763     5.61810000
      39    1     5.76533671     0.00000000     1.87270000
      40    1     5.76533671     0.00000000     5.61810000
      41    1     3.60368671     3.74408763     1.87270000
      42    1     3.60368671     3.74408763     5.61810000
      43    1    -0.72101836     1.24884043     1.87270000
      44    1    -0.72101836     1.24884043     5.61810000
      45    1    -2.88266836     4.99292806     1.87270000
      46    1    -2.88266836     4.99292806     5.61810000
      47    1     3.60228164     1.24884043     1.87270000
      48    1     3.60228164     1.24884043     5.61810000
      49    1     1.44063164     4.99292806     1.87270000
      50    1     1.44063164     4.99292806     5.61810000
Feature   SOC0.2500_nLi02_AA_rank00002
END_CFG

BEGIN_CFG
Size
  50
Supercell
  8.6466000000 0.0000000000 0.0000000000
  -4.3233000000 7.4881752564 0.0000000000
  0.0000000000 0.0000000000 7.4908000000
AtomData:  id type       cartes_x      cartes_y      cartes_z
       1    0     0.00000000     0.00000000     0.00000000
       2    0    -2.16165000     3.74408763     0.00000000
       3    1     0.72101836     1.24884043     1.87270000
       4    1     1.44203671     0.00000000     5.61810000
       5    1    -1.44063164     4.99292806     1.87270000
       6    1    -0.71961328     3.74408763     5.61810000
       7    1     5.04431836     1.24884043     1.87270000
       8    1     5.76533671     0.00000000     5.61810000
       9    1     2.88266836     4.99292806     1.87270000
      10    1     3.60368671     3.74408763     5.61810000
      11    1     2.88126328     0.00000000     1.87270000
      12    1    -0.72101836     6.23933483     5.61810000
      13    1     0.71961329     3.74408763     1.87270000
      14    1     1.44063164     2.49524720     5.61810000
      15    1     7.20456328     0.00000000     1.87270000
      16    1     3.60228164     6.23933483     5.61810000
      17    1     5.04291329     3.74408763     1.87270000
      18    1     5.76393164     2.49524720     5.61810000
      19    1    -1.44063164     2.49524720     1.87270000
      20    1    -0.71961329     1.24640677     5.61810000
      21    1    -3.60228164     6.23933483     1.87270000
      22    1    -2.88126328     4.99049440     5.61810000
      23    1     2.88266836     2.49524720     1.87270000
      24    1     3.60368671     1.24640677     5.61810000
      25    1     0.72101836     6.23933483     1.87270000
      26    1     1.44203672     4.99049440     5.61810000
      27    1     1.44063164     2.49524720     1.87270000
      28    1     2.16165000     1.24640677     5.61810000
      29    1    -0.72101836     6.23933483     1.87270000
      30    1     0.00000000     4.99049440     5.61810000
      31    1     5.76393164     2.49524720     1.87270000
      32    1     6.48495000     1.24640677     5.61810000
      33    1     3.60228164     6.23933483     1.87270000
      34    1     4.32330000     4.99049440     5.61810000
      35    1     1.44203671     0.00000000     1.87270000
      36    1    -2.16024493     6.23933483     5.61810000
      37    1    -0.71961328     3.74408763     1.87270000
      38    1     0.00140507     2.49524720     5.61810000
      39    1     5.76533671     0.00000000     1.87270000
      40    1     2.16305507     6.23933483     5.61810000
      41    1     3.60368671     3.74408763     1.87270000
      42    1     4.32470507     2.49524720     5.61810000
      43    1    -0.72101836     1.24884043     1.87270000
      44    1    -0.00000000     0.00000000     5.61810000
      45    1    -2.88266836     4.99292806     1.87270000
      46    1    -2.16165000     3.74408763     5.61810000
      47    1     3.60228164     1.24884043     1.87270000
      48    1     4.32330000     0.00000000     5.61810000
      49    1     1.44063164     4.99292806     1.87270000
      50    1     2.16165000     3.74408763     5.61810000
Feature   SOC0.2500_nLi02_AB_rank00003
END_CFG

BEGIN_CFG
Size
  50
Supercell
  8.6466000000 0.0000000000 0.0000000000
  -4.3233000000 7.4881752564 0.0000000000
  0.0000000000 0.0000000000 7.4908000000
AtomData:  id type       cartes_x      cartes_y      cartes_z
       1    0     0.00000000     0.00000000     0.00000000
       2    0    -2.16165000     3.74408763     0.00000000
       3    1     0.72101836     1.24884043     1.87270000
       4    1     0.72101836     1.24884043     5.61810000
       5    1    -1.44063164     4.99292806     1.87270000
       6    1    -1.44063164     4.99292806     5.61810000
       7    1     5.04431836     1.24884043     1.87270000
       8    1     5.04431836     1.24884043     5.61810000
       9    1     2.88266836     4.99292806     1.87270000
      10    1     2.88266836     4.99292806     5.61810000
      11    1     2.88126328     0.00000000     1.87270000
      12    1     2.88126328     0.00000000     5.61810000
      13    1     0.71961329     3.74408763     1.87270000
      14    1     0.71961329     3.74408763     5.61810000
      15    1     7.20456328     0.00000000     1.87270000
      16    1     7.20456328     0.00000000     5.61810000
      17    1     5.04291329     3.74408763     1.87270000
      18    1     5.04291329     3.74408763     5.61810000
      19    1    -1.44063164     2.49524720     1.87270000
      20    1    -1.44063164     2.49524720     5.61810000
      21    1    -3.60228164     6.23933483     1.87270000
      22    1    -3.60228164     6.23933483     5.61810000
      23    1     2.88266836     2.49524720     1.87270000
      24    1     2.88266836     2.49524720     5.61810000
      25    1     0.72101836     6.23933483     1.87270000
      26    1     0.72101836     6.23933483     5.61810000
      27    1     1.44063164     2.49524720     1.87270000
      28    1     1.44063164     2.49524720     5.61810000
      29    1    -0.72101836     6.23933483     1.87270000
      30    1    -0.72101836     6.23933483     5.61810000
      31    1     5.76393164     2.49524720     1.87270000
      32    1     5.76393164     2.49524720     5.61810000
      33    1     3.60228164     6.23933483     1.87270000
      34    1     3.60228164     6.23933483     5.61810000
      35    1     1.44203671     0.00000000     1.87270000
      36    1     1.44203671     0.00000000     5.61810000
      37    1    -0.71961328     3.74408763     1.87270000
      38    1    -0.71961328     3.74408763     5.61810000
      39    1     5.76533671     0.00000000     1.87270000
      40    1     5.76533671     0.00000000     5.61810000
      41    1     3.60368671     3.74408763     1.87270000
      42    1     3.60368671     3.74408763     5.61810000
      43    1    -0.72101836     1.24884043     1.87270000
      44    1    -0.72101836     1.24884043     5.61810000
      45    1    -2.88266836     4.99292806     1.87270000
      46    1    -2.88266836     4.99292806     5.61810000
      47    1     3.60228164     1.24884043     1.87270000
      48    1     3.60228164     1.24884043     5.61810000
      49    1     1.44063164     4.99292806     1.87270000
      50    1     1.44063164     4.99292806     5.61810000
Feature   SOC0.2500_nLi02_AA_rank00004
END_CFG

BEGIN_CFG
Size
  50
Supercell
  8.6466000000 0.0000000000 0.0000000000
  -4.3233000000 7.4881752564 0.0000000000
  0.0000000000 0.0000000000 7.4908000000
AtomData:  id type       cartes_x      cartes_y      cartes_z
       1    0     0.00000000     0.00000000     0.00000000
       2    0     0.00000000     0.00000000     3.74540000
       3    1     0.72101836     1.24884043     1.87270000
       4    1     1.44203671     0.00000000     5.61810000
       5    1    -1.44063164     4.99292806     1.87270000
       6    1    -0.71961328     3.74408763     5.61810000
       7    1     5.04431836     1.24884043     1.87270000
       8    1     5.76533671     0.00000000     5.61810000
       9    1     2.88266836     4.99292806     1.87270000
      10    1     3.60368671     3.74408763     5.61810000
      11    1     2.88126328     0.00000000     1.87270000
      12    1    -0.72101836     6.23933483     5.61810000
      13    1     0.71961329     3.74408763     1.87270000
      14    1     1.44063164     2.49524720     5.61810000
      15    1     7.20456328     0.00000000     1.87270000
      16    1     3.60228164     6.23933483     5.61810000
      17    1     5.04291329     3.74408763     1.87270000
      18    1     5.76393164     2.49524720     5.61810000
      19    1    -1.44063164     2.49524720     1.87270000
      20    1    -0.71961329     1.24640677     5.61810000
      21    1    -3.60228164     6.23933483     1.87270000
      22    1    -2.88126328     4.99049440     5.61810000
      23    1     2.88266836     2.49524720     1.87270000
      24    1     3.60368671     1.24640677     5.61810000
      25    1     0.72101836     6.23933483     1.87270000
      26    1     1.44203672     4.99049440     5.61810000
      27    1     1.44063164     2.49524720     1.87270000
      28    1     2.16165000     1.24640677     5.61810000
      29    1    -0.72101836     6.23933483     1.87270000
      30    1     0.00000000     4.99049440     5.61810000
      31    1     5.76393164     2.49524720     1.87270000
      32    1     6.48495000     1.24640677     5.61810000
      33    1     3.60228164     6.23933483     1.87270000
      34    1     4.32330000     4.99049440     5.61810000
      35    1     1.44203671     0.00000000     1.87270000
      36    1    -2.16024493     6.23933483     5.61810000
      37    1    -0.71961328     3.74408763     1.87270000
      38    1     0.00140507     2.49524720     5.61810000
      39    1     5.76533671     0.00000000     1.87270000
      40    1     2.16305507     6.23933483     5.61810000
      41    1     3.60368671     3.74408763     1.87270000
      42    1     4.32470507     2.49524720     5.61810000
      43    1    -0.72101836     1.24884043     1.87270000
      44    1    -0.00000000     0.00000000     5.61810000
      45    1    -2.88266836     4.99292806     1.87270000
      46    1    -2.16165000     3.74408763     5.61810000
      47    1     3.60228164     1.24884043     1.87270000
      48    1     4.32330000     0.00000000     5.61810000
      49    1     1.44063164     4.99292806     1.87270000
      50    1     2.16165000     3.74408763     5.61810000
Feature   SOC0.2500_nLi02_AB_rank00005
END_CFG

BEGIN_CFG
Size
  50
Supercell
  8.6466000000 0.0000000000 0.0000000000
  -4.3233000000 7.4881752564 0.0000000000
  0.0000000000 0.0000000000 7.4908000000
AtomData:  id type       cartes_x      cartes_y      cartes_z
       1    0     0.00000000     0.00000000     0.00000000
       2    0     0.00000000     0.00000000     3.74540000
       3    1     0.72101836     1.24884043     1.87270000
       4    1     0.72101836     1.24884043     5.61810000
       5    1    -1.44063164     4.99292806     1.87270000
       6    1    -1.44063164     4.99292806     5.61810000
       7    1     5.04431836     1.24884043     1.87270000
       8    1     5.04431836     1.24884043     5.61810000
       9    1     2.88266836     4.99292806     1.87270000
      10    1     2.88266836     4.99292806     5.61810000
      11    1     2.88126328     0.00000000     1.87270000
      12    1     2.88126328     0.00000000     5.61810000
      13    1     0.71961329     3.74408763     1.87270000
      14    1     0.71961329     3.74408763     5.61810000
      15    1     7.20456328     0.00000000     1.87270000
      16    1     7.20456328     0.00000000     5.61810000
      17    1     5.04291329     3.74408763     1.87270000
      18    1     5.04291329     3.74408763     5.61810000
      19    1    -1.44063164     2.49524720     1.87270000
      20    1    -1.44063164     2.49524720     5.61810000