BEGIN_CFG
 Size
    16
 Supercell
         8.000000      0.000000      0.000000
         0.000000      8.000000      0.000000
         0.000000      0.000000      4.000000
 AtomData:  id type       cartes_x      cartes_y      cartes_z           fx          fy          fz
             1    0       0.000000      0.000000      0.000000    -0.110483   -0.061518    0.000000
             2    0       0.000000      2.000000      2.000000    -0.167138   -0.075620   -0.000000
             3    0       0.000000      4.000000      0.000000    -0.077980    0.066330   -0.000000
             4    0       0.000000      6.000000      2.000000    -0.029646    0.063106    0.000000
             5    0       2.000000      0.000000      2.000000     0.098405   -0.084136   -0.000000
             6    0       2.000000      2.000000      0.000000     0.159533    0.040158    0.000000
             7    0       2.000000      4.000000      2.000000     0.165280    0.068194   -0.000000
             8    0       4.000000      0.000000      0.000000     0.053168    0.017087    0.000000
             9    0       6.000000      4.000000      2.000000    -0.087109   -0.014236   -0.000000
            10    1       2.000000      6.000000      0.000000     0.523427   -0.213963    0.000000
            11    1       4.000000      2.000000      2.000000     0.584457    0.365140    0.000000
            12    1       4.000000      4.000000      0.000000     0.125994    0.100621   -0.000000
            13    1       4.000000      6.000000      2.000000     0.229726   -0.409432   -0.000000
            14    1       6.000000      0.000000      2.000000    -0.308224    0.011223   -0.000000
            15    1       6.000000      2.000000      0.000000    -0.545000   -0.337919   -0.000000
            16    1       6.000000      6.000000      0.000000    -0.614410    0.464965   -0.000000
 Energy
        -66.458708680000
END_CFG

