BEGIN_CFG
 Size
    128
 Supercell
        14.080000      0.000000      0.000000
         0.000000     14.080000      0.000000
         0.000000      0.000000     14.080000
 AtomData:  id type       cartes_x      cartes_y      cartes_z           fx          fy          fz
             1    0      13.975800     13.966200      0.162360     0.077722    0.084688   -0.036006
             2    0       1.720760      1.921800      1.583220     0.152210   -0.124479    0.178614
             3    0      13.894700     14.066200      3.846260     0.227245    0.165845   -0.203159
             4    0       2.016380      1.905470      5.428600    -0.270100    0.293599    0.077223
             5    0      13.727300      0.503950      6.742480     0.209859   -0.254748    0.103985
             6    0       1.677380      1.723170      8.476040     0.160048    0.143713    0.093728
             7    0       0.525460     13.991900     10.384000    -0.338565    0.025636    0.103444
             8    0       1.705940      1.578940     12.252800    -0.389272    0.417614    0.399209
             9    0      13.769700      3.137250      0.222190    -0.125189    0.089820   -0.225725
            10    0       1.791540      5.053460      1.738930    -0.180196   -0.015626   -0.150083
            11    0      13.719800      3.339910      3.082480     0.136406    0.085312    0.406928
            12    0       1.767770      4.922740      5.412820    -0.022814   -0.168711   -0.189618
            13    0      13.744100      3.553540      7.015770     0.078700   -0.100396    0.114634
            14    0       1.728520      4.923530      8.492370     0.116799    0.048426   -0.530647
            15    0       0.388510      3.660770     10.262900    -0.537346   -0.278471    0.186586
            16    0       1.484600      4.554670     12.625900     0.133798    0.303232    0.066292
            17    0      13.882000      6.988640     13.859700     0.240305   -0.053748   -0.022047
            18    0       1.334870      8.353610      1.635860     0.062829   -0.080597    0.020054
            19    0       0.060720      6.771370      3.924750    -0.138511   -0.114431   -0.277799
            20    0       1.456620      8.581500      5.265560     0.180128    0.254127    0.043035
            21    0      13.983900      6.951720      7.084420     0.006320   -0.126082    0.011326
            22    0       1.913300      8.538030      8.552230    -0.078386    0.041181    0.163161
            23    0       0.302560      6.691070     10.487200    -0.085509    0.088657    0.144469
            24    0       1.783340      9.145240     11.951400    -0.066326   -0.315941    0.212126
            25    0       0.362130     10.658200     13.910800    -0.231131   -0.125683    0.376565
            26    0       1.718400     12.662800      2.050370     0.070883    0.015491   -0.089749
            27    0       0.637210     10.314100      3.306280    -0.221435    0.408592    0.196127
            28    0       2.119170     12.819700      5.327090    -0.342719   -0.012848    0.168296
            29    0       0.295230     10.656100      6.917480    -0.022885    0.083375    0.116009
            30    0       2.076160     12.886700      8.246260    -0.129030   -0.126166    0.116558
            31    0       0.246390     10.938300     10.375200    -0.122743    0.009477   -0.131008
            32    0       1.846040     12.459100     12.477100    -0.010026   -0.249517   -0.067162
            33    0       3.304290      0.081170     14.029400     0.334944   -0.009269    0.278299
            34    0       5.473150      1.391180      1.989160     0.075396    0.141580   -0.118091
            35    0       3.359960      0.543560      3.691520     0.286379   -0.216895   -0.233006
            36    0       5.630910      1.976610      5.234030     0.083718   -0.081690   -0.210873
            37    0       4.059700      0.491050      7.008650    -0.095536   -0.077932    0.227367
            38    0       5.752370      2.477250      9.590210    -0.018405   -0.452876   -0.110144
            39    0       3.416300      0.187620     11.107400     0.362923   -0.188843   -0.681378
            40    0       5.368890      1.707940     12.330800    -0.070363    0.156102    0.141745
            41    0       3.870200      3.534580      0.058600    -0.175073   -0.293247    0.244648
            42    0       5.477490      5.706040      1.631680    -0.021562   -0.062134   -0.169039
            43    0       4.055760      3.820030      3.484740    -0.265203   -0.227847   -0.191287
            44    0       5.394650      4.988600      5.494040     0.267095    0.421905   -0.097219
            45    0       4.146710      3.350970      7.251780    -0.348027    0.076807    0.144273
            46    0       5.492820      5.455760      8.750750    -0.085575   -0.051133    0.134032
            47    0       3.404410      3.371880     10.641800    -0.078622   -0.003305    0.003682
            48    0       5.188500      5.096370     12.471900    -0.037343    0.349040   -0.430124
            49    0       3.098900      7.046690     13.738900     0.183308   -0.040115    0.011115
            50    0       5.649560      8.730930      2.081310    -0.369018    0.047074    0.043841
            51    0       3.105280      6.876080      3.359660     0.300907    0.176695    0.106219
            52    0       4.956640      8.674810      5.226800     0.223053    0.019408   -0.111517
            53    0       3.163960      6.962720      6.525140     0.270582   -0.260342    0.308406
            54    0       4.996630      8.476050      8.451010    -0.132532    0.090745    0.036608
            55    0       3.196930      6.201530     10.142100     0.090667    0.293387    0.356781
            56    0       4.591570      8.496720     11.220300     0.092790    0.024610    0.426486
            57    0       3.368710     10.310000      0.939080    -0.104688   -0.049898   -0.341570
            58    0       5.110920     12.258000      2.037580     0.075087    0.216753    0.004168
            59    0       3.399540     10.874500      3.926710     0.071094   -0.367883   -0.119533
            60    0       5.154520     12.502800      5.448920     0.116503    0.204872   -0.137943
            61    0       3.553700     10.683100      7.014090    -0.135324   -0.138251    0.013332
            62    0       5.047520     12.487000      9.294240    -0.129653   -0.033192   -0.412993
            63    0       3.166210     10.596000     10.148400     0.038408    0.309807   -0.188324
            64    0       4.905560     11.910600     12.278000    -0.094585   -0.025420    0.085822
            65    0       6.680800     13.836900     13.895000    -0.051107   -0.171387    0.091717
            66    0       8.723100      1.307470      1.517100    -0.076394    0.188126    0.069782
            67    0       7.434330     13.792800      3.777050    -0.341345    0.077830    0.063510
            68    0       8.579690      1.956140      5.197610     0.132412    0.104499   -0.009463
            69    0       6.860470      0.148290      7.409830     0.165219    0.038694   -0.002660
            70    0       9.077650      1.520710      9.068290    -0.169890    0.052271    0.163535
            71    0       6.686570     13.805700     10.818100     0.217532    0.067572   -0.153627
            72    0       8.571160      1.195260     12.248000     0.304267    0.254766    0.000492
            73    0       7.015620      3.467250     13.775500     0.311111   -0.052263    0.293163
            74    0       8.934890      5.425330      1.441100    -0.166591    0.257601   -0.234353
            75    0       7.402780      3.556090      3.014770    -0.212422    0.074608    0.088622
            76    0       8.705030      5.290680      5.442150     0.060272   -0.099122   -0.034332
            77    0       7.244750      3.399730      7.492720     0.126150    0.044474   -0.188434
            78    0       8.765950      5.686140      8.615760     0.152239   -0.095381    0.167527
            79    0       7.423020      4.234820     10.814000     0.164707   -0.004704    0.078192
            80    0       9.337910      5.720240     12.705700    -0.326473   -0.223201   -0.131021
            81    0       6.934980      7.470620     13.401600    -0.103554   -0.196184    0.273513
            82    0       8.575420      8.927960      1.703920     0.224903    0.094426   -0.246601
            83    0       7.428340      7.040930      3.362340    -0.089179   -0.162409    0.412436
            84    0       8.602650      8.897110      5.691880    -0.020855   -0.028756   -0.116763
            85    0       6.925960      7.087000      7.102350     0.060445    0.127515   -0.192991
            86    0       9.085280      9.030670      8.638880    -0.127798   -0.152077    0.104670
            87    0       7.117040      7.566290     10.519000     0.175046   -0.449896   -0.151733
            88    0       9.090580      8.884100     12.203900    -0.071258    0.287294    0.018161
            89    0       6.464360     10.329500     13.992800     0.146138    0.039214   -0.134769
            90    0       8.352560     12.202900      1.609990     0.144244   -0.159589   -0.137531
            91    0       6.965160     10.710000      3.869590    -0.108115   -0.124947   -0.027211
            92    0       8.724260     12.243000      5.850870    -0.136863   -0.042378   -0.073462
            93    0       6.478420     10.736600      7.217790     0.210041   -0.118042    0.019575
            94    0       8.748240     12.217500      8.753230     0.057564    0.063700    0.185965
            95    0       6.867630     10.329900     10.245500    -0.145331    0.088753    0.059570
            96    0       8.422900     11.866200     12.086600     0.243262    0.118468    0.138626
            97    0      10.546600     13.708200      0.076650    -0.052540    0.002068   -0.221847
            98    0      12.141000      1.280940      1.820750    -0.137086    0.077399    0.095107
            99    0      10.241100     13.822900      3.577640     0.175384   -0.011200    0.073403
           100    0      12.031900      1.906410      5.096270    -0.193366    0.098688   -0.172084
           101    0      10.225000      0.311610      6.780910     0.336839   -0.181269    0.152658
           102    0      12.362500      1.675820      8.862960    -0.007388    0.110400    0.193939
           103    0      10.928400     13.681700     10.448500    -0.552976    0.163268    0.403620
           104    0      12.352100      1.603700     12.089400     0.129619   -0.066964    0.066645
           105    0      10.691700      3.302190      0.138720    -0.159296   -0.113020   -0.036444
           106    0      12.358400      5.503570      1.606580    -0.017367    0.012861    0.078308
           107    0      10.426900      4.014020      3.180030     0.137289   -0.377823    0.250676
           108    0      12.370900      5.157940      5.428860    -0.287391    0.043665   -0.277916
           109    0      10.646700      3.393280      7.269800    -0.175726    0.151159   -0.031959
           110    0      11.872500      5.579130      8.954280     0.405827   -0.345503   -0.016616
           111    0      10.561600      3.540400     10.891700    -0.217223   -0.053476   -0.244057
           112    0      12.198300      5.053640     12.508200     0.279046    0.159283   -0.130615
           113    0      10.837300      7.504410     14.035200     0.094062    0.090626    0.219321
           114    0      12.529700      8.791200      2.278800    -0.130120    0.083847   -0.349874
           115    0      10.414600      7.140580      3.440880     0.058577   -0.010591    0.192726
           116    0      12.377400      9.023000      5.109520     0.018839   -0.078401    0.139870
           117    0      10.726200      7.056900      6.932370    -0.043868    0.235259   -0.154113
           118    0      12.674700      8.774110      8.901410    -0.025775    0.017517   -0.105639
           119    0      10.620100      7.141470     10.711100     0.046213    0.153220   -0.047655
           120    0      12.771500      8.839390     12.129400    -0.100360    0.094932   -0.114399
           121    0      10.960900     10.700600     13.768300    -0.186994   -0.235961    0.290311
           122    0      12.305600     12.225300      2.089310     0.033987   -0.211236   -0.074399
           123    0       9.949270     10.601500      3.874170     0.279016    0.023249   -0.216389
           124    0      12.357100     12.222400      5.353740    -0.056760    0.072671   -0.125812
           125    0      10.844800     10.608500      7.057060     0.047301    0.003150    0.184598
           126    0      12.500600     12.735200      8.847450     0.232010   -0.321847   -0.602429
           127    0      10.996900     10.555100     10.393600    -0.143446    0.096048    0.149125
           128    0      12.551700     12.373400     12.444000     0.212883    0.058653   -0.351319
 Energy
       -236.455879620000
 PlusStress:  xx          yy          zz          yz          xz          xy
        -8.12447    -7.98919    -7.98830    -1.00815    -1.52818     1.82273
END_CFG

