 vasp.5.4.1 24Jun15 (build Jun 17 2016 15:57:28) complex                        
  
 executed on           IFC91_ompi date 2017.05.17  13:05:45
 running on   16 total cores
 distrk:  each k-point on   16 cores,    1 groups
 distr:  one band on NCORES_PER_BAND=  16 cores,    1 groups


--------------------------------------------------------------------------------------------------------


 INCAR:
 POTCAR:    PAW_PBE Co 02Aug2007                  
 POTCAR:    PAW_PBE Nb_sv 25May2007               

 ----------------------------------------------------------------------------- 
|                                                                             |
|           W    W    AA    RRRRR   N    N  II  N    N   GGGG   !!!           |
|           W    W   A  A   R    R  NN   N  II  NN   N  G    G  !!!           |
|           W    W  A    A  R    R  N N  N  II  N N  N  G       !!!           |
|           W WW W  AAAAAA  RRRRR   N  N N  II  N  N N  G  GGG   !            |
|           WW  WW  A    A  R   R   N   NN  II  N   NN  G    G                |
|           W    W  A    A  R    R  N    N  II  N    N   GGGG   !!!           |
|                                                                             |
|      For optimal performance we recommend to set                            |
|        NCORE= 4 - approx SQRT( number of cores)                             |
|      NCORE specifies how many cores store one orbital (NPAR=cpu/NCORE).     |
|      This setting can  greatly improve the performance of VASP for DFT.     |
|      The default, NPAR=number of cores might be grossly inefficient         |
|      on modern multi-core architectures or massively parallel machines.     |
|      Do your own testing !!!!                                               |
|      Unfortunately you need to use the default for GW and RPA calculations. |
|      (for HF NCORE is supported but not extensively tested yet)             |
|                                                                             |
 ----------------------------------------------------------------------------- 

 POTCAR:    PAW_PBE Co 02Aug2007                  
   VRHFIN =Co: d8 s1                                                            
   LEXCH  = PE                                                                  
   EATOM  =   813.3670 eV,   59.7808 Ry                                         
                                                                                
   TITEL  = PAW_PBE Co 02Aug2007                                                
   LULTRA =        F    use ultrasoft PP ?                                      
   IUNSCR =        1    unscreen: 0-lin 1-nonlin 2-no                           
   RPACOR =    2.000    partial core radius                                     
   POMASS =   58.933; ZVAL   =    9.000    mass and valenz                      
   RCORE  =    2.300    outmost cutoff radius                                   
   RWIGS  =    2.460; RWIGS  =    1.302    wigner-seitz radius (au A)           
   ENMAX  =  267.968; ENMIN  =  200.976 eV                                      
   RCLOC  =    1.203    cutoff for local pot                                    
   LCOR   =        T    correct aug charges                                     
   LPAW   =        T    paw PP                                                  
   EAUG   =  477.818                                                            
   DEXC   =    0.000                                                            
   RMAX   =    2.360    core radius for proj-oper                               
   RAUG   =    1.300    factor for augmentation sphere                          
   RDEP   =    2.393    radius for radial grids                                 
   RDEPT  =    1.864    core radius for aug-charge                              
                                                                                
   Atomic configuration                                                         
    9 entries                                                                   
     n  l   j            E        occ.                                          
     1  0  0.50     -7587.6674   2.0000                                         
     2  0  0.50      -893.6084   2.0000                                         
     2  1  1.50      -764.5805   6.0000                                         
     3  0  0.50       -97.5973   2.0000                                         
     3  1  1.50       -60.9648   6.0000                                         
     3  2  2.50        -4.2382   8.0000                                         
     4  0  0.50        -4.3746   1.0000                                         
     4  1  1.50        -4.0817   0.0000                                         
     4  3  2.50        -1.3606   0.0000                                         
   Description                                                                  
     l       E           TYP  RCUT    TYP  RCUT                                 
     2     -4.2382362     23  2.300                                             
     2     -5.5988188     23  2.300                                             
     0     -4.3745797     23  2.300                                             
     0      5.7660125     23  2.300                                             
     1     -2.7211652     23  2.300                                             
     1     16.9860234     23  2.300                                             
  local pseudopotential read in
  partial core-charges read in
  partial kinetic energy density read in
  atomic valenz-charges read in
  non local Contribution for L=           2  read in
    real space projection operators read in
  non local Contribution for L=           2  read in
    real space projection operators read in
  non local Contribution for L=           0  read in
    real space projection operators read in
  non local Contribution for L=           0  read in
    real space projection operators read in
  non local Contribution for L=           1  read in
    real space projection operators read in
  non local Contribution for L=           1  read in
    real space projection operators read in
    PAW grid and wavefunctions read in
 
   number of l-projection  operators is LMAX  =           6
   number of lm-projection operators is LMMAX =          18
 
 POTCAR:    PAW_PBE Nb_sv 25May2007               
   VRHFIN =Nb: 4p5s4d                                                           
   LEXCH  = PE                                                                  
   EATOM  =  1555.1913 eV,  114.3033 Ry                                         
                                                                                
   TITEL  = PAW_PBE Nb_sv 25May2007                                             
   LULTRA =        F    use ultrasoft PP ?                                      
   IUNSCR =        1    unscreen: 0-lin 1-nonlin 2-no                           
   RPACOR =    1.800    partial core radius                                     
   POMASS =   92.910; ZVAL   =   13.000    mass and valenz                      
   RCORE  =    2.400    outmost cutoff radius                                   
   RWIGS  =    2.400; RWIGS  =    1.270    wigner-seitz radius (au A)           
   ENMAX  =  293.235; ENMIN  =  219.927 eV                                      
   ICORE  =        3    local potential                                         
   LCOR   =        T    correct aug charges                                     
   LPAW   =        T    paw PP                                                  
   EAUG   =  455.659                                                            
   DEXC   =    0.000                                                            
   RMAX   =    2.456    core radius for proj-oper                               
   RAUG   =    1.300    factor for augmentation sphere                          
   RDEP   =    2.451    radius for radial grids                                 
   RDEPT  =    1.956    core radius for aug-charge                              
                                                                                
   Atomic configuration                                                         
   11 entries                                                                   
     n  l   j            E        occ.                                          
     1  0  0.50    -18805.2457   2.0000                                         
     2  0  0.50     -2630.2869   2.0000                                         
     2  1  1.50     -2348.4046   6.0000                                         
     3  0  0.50      -438.8757   2.0000                                         
     3  1  1.50      -346.7588   6.0000                                         
     3  2  2.50      -196.2560  10.0000                                         
     4  0  0.50       -58.3859   2.0000                                         
     5  0  0.50        -3.9816   1.0000                                         
     4  1  1.50       -34.5141   6.0000                                         
     4  2  2.50        -3.0408   4.0000                                         
     4  3  2.50        -1.3606   0.0000                                         
   Description                                                                  
     l       E           TYP  RCUT    TYP  RCUT                                 
     0    -58.3859094     23  2.200                                             
     0     -3.9816262     23  2.200                                             
     1    -34.5140738     23  2.200                                             
     1     13.6058260     23  2.200                                             
     2     -3.0408010     23  2.200                                             
     2     -0.1283038     23  2.200                                             
     3     -1.3605826     23  2.400                                             
  local pseudopotential read in
  partial core-charges read in
  partial kinetic energy density read in
  atomic valenz-charges read in
  non local Contribution for L=           0  read in
    real space projection operators read in
  non local Contribution for L=           0  read in
    real space projection operators read in
  non local Contribution for L=           1  read in
    real space projection operators read in
  non local Contribution for L=           1  read in
    real space projection operators read in
  non local Contribution for L=           2  read in
    real space projection operators read in
  non local Contribution for L=           2  read in
    real space projection operators read in
    PAW grid and wavefunctions read in
 
   number of l-projection  operators is LMAX  =           6
   number of lm-projection operators is LMMAX =          18
 
  PAW_PBE Co 02Aug2007                  :
 energy of atom  1       EATOM= -813.3670
 kinetic energy error for atom=    0.0093 (will be added to EATOM!!)
  PAW_PBE Nb_sv 25May2007               :
 energy of atom  2       EATOM=-1555.1913
 kinetic energy error for atom=    0.0212 (will be added to EATOM!!)
 
 
 POSCAR: MLIP output to VASP                     
  positions in cartesian coordinates
  No initial velocities read in
 exchange correlation table for  LEXCH =        8
   RHO(1)=    0.500       N(1)  =     2000
   RHO(2)=  100.500       N(2)  =     4000
 


--------------------------------------------------------------------------------------------------------


 ion  position               nearest neighbor table
   1  0.000  0.000  0.000-   2 2.74   3 2.74   4 2.74   2 2.74   3 2.74   2 2.74   4 2.74   2 2.74
                             3 2.74   4 2.74   3 2.74   4 2.74
   2  0.000  0.500  0.500-   1 2.74   3 2.74   4 2.74   1 2.74   4 2.74   1 2.74   3 2.74   1 2.74
                             3 2.74   4 2.74   4 2.74   3 2.74
   3  0.500  0.000  0.500-   1 2.74   2 2.74   4 2.74   1 2.74   4 2.74   2 2.74   4 2.74   4 2.74
                             1 2.74   2 2.74   1 2.74   2 2.74
   4  0.500  0.500  0.000-   1 2.74   2 2.74   3 2.74   2 2.74   3 2.74   1 2.74   3 2.74   3 2.74
                             1 2.74   2 2.74   2 2.74   1 2.74
 

IMPORTANT INFORMATION: All symmetrisations will be switched off!
NOSYMM: (Re-)initialisation of all symmetry stuff for point group C_1.

 
 

Automatic generation of k-mesh.
 generate k-points for:   11   11   11
Space group operators:
 irot       det(A)        alpha          n_x          n_y          n_z        tau_x        tau_y        tau_z
    1     1.000000     0.000001     1.000000     0.000000     0.000000     0.000000     0.000000     0.000000
 
 Subroutine IBZKPT returns following result:
 ===========================================
 
 Found    666 irreducible k-points:
 
 Following reciprocal coordinates:
            Coordinates               Weight
  0.000000  0.000000  0.000000      1.000000
  0.090909  0.000000  0.000000      2.000000
  0.181818  0.000000  0.000000      2.000000
  0.272727  0.000000  0.000000      2.000000
  0.363636  0.000000  0.000000      2.000000
  0.454545  0.000000  0.000000      2.000000
  0.000000  0.090909  0.000000      2.000000
  0.090909  0.090909  0.000000      2.000000
  0.181818  0.090909  0.000000      2.000000
  0.272727  0.090909  0.000000      2.000000
  0.363636  0.090909  0.000000      2.000000
  0.454545  0.090909  0.000000      2.000000
 -0.454545  0.090909  0.000000      2.000000
 -0.363636  0.090909  0.000000      2.000000
 -0.272727  0.090909  0.000000      2.000000
 -0.181818  0.090909  0.000000      2.000000
 -0.090909  0.090909  0.000000      2.000000
  0.000000  0.181818  0.000000      2.000000
  0.090909  0.181818  0.000000      2.000000
  0.181818  0.181818  0.000000      2.000000
  0.272727  0.181818  0.000000      2.000000
  0.363636  0.181818  0.000000      2.000000
  0.454545  0.181818  0.000000      2.000000
 -0.454545  0.181818  0.000000      2.000000
 -0.363636  0.181818  0.000000      2.000000
 -0.272727  0.181818  0.000000      2.000000
 -0.181818  0.181818  0.000000      2.000000
 -0.090909  0.181818  0.000000      2.000000
  0.000000  0.272727  0.000000      2.000000
  0.090909  0.272727  0.000000      2.000000
  0.181818  0.272727  0.000000      2.000000
  0.272727  0.272727  0.000000      2.000000
  0.363636  0.272727  0.000000      2.000000
  0.454545  0.272727  0.000000      2.000000
 -0.454545  0.272727  0.000000      2.000000
 -0.363636  0.272727  0.000000      2.000000
 -0.272727  0.272727  0.000000      2.000000
 -0.181818  0.272727  0.000000      2.000000
 -0.090909  0.272727  0.000000      2.000000
  0.000000  0.363636  0.000000      2.000000
  0.090909  0.363636  0.000000      2.000000
  0.181818  0.363636  0.000000      2.000000
  0.272727  0.363636  0.000000      2.000000
  0.363636  0.363636  0.000000      2.000000
  0.454545  0.363636  0.000000      2.000000
 -0.454545  0.363636  0.000000      2.000000
 -0.363636  0.363636  0.000000      2.000000
 -0.272727  0.363636  0.000000      2.000000
 -0.181818  0.363636  0.000000      2.000000
 -0.090909  0.363636  0.000000      2.000000
  0.000000  0.454545  0.000000      2.000000
  0.090909  0.454545  0.000000      2.000000
  0.181818  0.454545  0.000000      2.000000
  0.272727  0.454545  0.000000      2.000000
  0.363636  0.454545  0.000000      2.000000
  0.454545  0.454545  0.000000      2.000000
 -0.454545  0.454545  0.000000      2.000000
 -0.363636  0.454545  0.000000      2.000000
 -0.272727  0.454545  0.000000      2.000000
 -0.181818  0.454545  0.000000      2.000000
 -0.090909  0.454545  0.000000      2.000000
  0.000000  0.000000  0.090909      2.000000
  0.090909  0.000000  0.090909      2.000000
  0.181818  0.000000  0.090909      2.000000
  0.272727  0.000000  0.090909      2.000000
  0.363636  0.000000  0.090909      2.000000
  0.454545  0.000000  0.090909      2.000000
 -0.454545  0.000000  0.090909      2.000000
 -0.363636  0.000000  0.090909      2.000000
 -0.272727  0.000000  0.090909      2.000000
 -0.181818  0.000000  0.090909      2.000000
 -0.090909  0.000000  0.090909      2.000000
  0.000000  0.090909  0.090909      2.000000
  0.090909  0.090909  0.090909      2.000000
  0.181818  0.090909  0.090909      2.000000
  0.272727  0.090909  0.090909      2.000000
  0.363636  0.090909  0.090909      2.000000
  0.454545  0.090909  0.090909      2.000000
 -0.454545  0.090909  0.090909      2.000000
 -0.363636  0.090909  0.090909      2.000000
 -0.272727  0.090909  0.090909      2.000000
 -0.181818  0.090909  0.090909      2.000000
 -0.090909  0.090909  0.090909      2.000000
  0.000000  0.181818  0.090909      2.000000
  0.090909  0.181818  0.090909      2.000000
  0.181818  0.181818  0.090909      2.000000
  0.272727  0.181818  0.090909      2.000000
  0.363636  0.181818  0.090909      2.000000
  0.454545  0.181818  0.090909      2.000000
 -0.454545  0.181818  0.090909      2.000000
 -0.363636  0.181818  0.090909      2.000000
 -0.272727  0.181818  0.090909      2.000000
 -0.181818  0.181818  0.090909      2.000000
 -0.090909  0.181818  0.090909      2.000000
  0.000000  0.272727  0.090909      2.000000
  0.090909  0.272727  0.090909      2.000000
  0.181818  0.272727  0.090909      2.000000
  0.272727  0.272727  0.090909      2.000000
  0.363636  0.272727  0.090909      2.000000
  0.454545  0.272727  0.090909      2.000000
 -0.454545  0.272727  0.090909      2.000000
 -0.363636  0.272727  0.090909      2.000000
 -0.272727  0.272727  0.090909      2.000000
 -0.181818  0.272727  0.090909      2.000000
 -0.090909  0.272727  0.090909      2.000000
  0.000000  0.363636  0.090909      2.000000
  0.090909  0.363636  0.090909      2.000000
  0.181818  0.363636  0.090909      2.000000
  0.272727  0.363636  0.090909      2.000000
  0.363636  0.363636  0.090909      2.000000
  0.454545  0.363636  0.090909      2.000000
 -0.454545  0.363636  0.090909      2.000000
 -0.363636  0.363636  0.090909      2.000000
 -0.272727  0.363636  0.090909      2.000000
 -0.181818  0.363636  0.090909      2.000000
 -0.090909  0.363636  0.090909      2.000000
  0.000000  0.454545  0.090909      2.000000
  0.090909  0.454545  0.090909      2.000000
  0.181818  0.454545  0.090909      2.000000
  0.272727  0.454545  0.090909      2.000000
  0.363636  0.454545  0.090909      2.000000
  0.454545  0.454545  0.090909      2.000000
 -0.454545  0.454545  0.090909      2.000000
 -0.363636  0.454545  0.090909      2.000000
 -0.272727  0.454545  0.090909      2.000000
 -0.181818  0.454545  0.090909      2.000000
 -0.090909  0.454545  0.090909      2.000000
  0.000000 -0.454545  0.090909      2.000000
  0.090909 -0.454545  0.090909      2.000000
  0.181818 -0.454545  0.090909      2.000000
  0.272727 -0.454545  0.090909      2.000000
  0.363636 -0.454545  0.090909      2.000000
  0.454545 -0.454545  0.090909      2.000000
 -0.454545 -0.454545  0.090909      2.000000
 -0.363636 -0.454545  0.090909      2.000000
 -0.272727 -0.454545  0.090909      2.000000
 -0.181818 -0.454545  0.090909      2.000000
 -0.090909 -0.454545  0.090909      2.000000
  0.000000 -0.363636  0.090909      2.000000
  0.090909 -0.363636  0.090909      2.000000
  0.181818 -0.363636  0.090909      2.000000
  0.272727 -0.363636  0.090909      2.000000
  0.363636 -0.363636  0.090909      2.000000
  0.454545 -0.363636  0.090909      2.000000
 -0.454545 -0.363636  0.090909      2.000000
 -0.363636 -0.363636  0.090909      2.000000
 -0.272727 -0.363636  0.090909      2.000000
 -0.181818 -0.363636  0.090909      2.000000
 -0.090909 -0.363636  0.090909      2.000000
  0.000000 -0.272727  0.090909      2.000000
  0.090909 -0.272727  0.090909      2.000000
  0.181818 -0.272727  0.090909      2.000000
  0.272727 -0.272727  0.090909      2.000000
  0.363636 -0.272727  0.090909      2.000000
  0.454545 -0.272727  0.090909      2.000000
 -0.454545 -0.272727  0.090909      2.000000
 -0.363636 -0.272727  0.090909      2.000000
 -0.272727 -0.272727  0.090909      2.000000
 -0.181818 -0.272727  0.090909      2.000000
 -0.090909 -0.272727  0.090909      2.000000
  0.000000 -0.181818  0.090909      2.000000
  0.090909 -0.181818  0.090909      2.000000
  0.181818 -0.181818  0.090909      2.000000
  0.272727 -0.181818  0.090909      2.000000
  0.363636 -0.181818  0.090909      2.000000
  0.454545 -0.181818  0.090909      2.000000
 -0.454545 -0.181818  0.090909      2.000000
 -0.363636 -0.181818  0.090909      2.000000
 -0.272727 -0.181818  0.090909      2.000000
 -0.181818 -0.181818  0.090909      2.000000
 -0.090909 -0.181818  0.090909      2.000000
  0.000000 -0.090909  0.090909      2.000000
  0.090909 -0.090909  0.090909      2.000000
  0.181818 -0.090909  0.090909      2.000000
  0.272727 -0.090909  0.090909      2.000000
  0.363636 -0.090909  0.090909      2.000000
  0.454545 -0.090909  0.090909      2.000000
 -0.454545 -0.090909  0.090909      2.000000
 -0.363636 -0.090909  0.090909      2.000000
 -0.272727 -0.090909  0.090909      2.000000
 -0.181818 -0.090909  0.090909      2.000000
 -0.090909 -0.090909  0.090909      2.000000
  0.000000  0.000000  0.181818      2.000000
  0.090909  0.000000  0.181818      2.000000
  0.181818  0.000000  0.181818      2.000000
  0.272727  0.000000  0.181818      2.000000
  0.363636  0.000000  0.181818      2.000000
  0.454545  0.000000  0.181818      2.000000
 -0.454545  0.000000  0.181818      2.000000
 -0.363636  0.000000  0.181818      2.000000
 -0.272727  0.000000  0.181818      2.000000
 -0.181818  0.000000  0.181818      2.000000
 -0.090909  0.000000  0.181818      2.000000
  0.000000  0.090909  0.181818      2.000000
  0.090909  0.090909  0.181818      2.000000
  0.181818  0.090909  0.181818      2.000000
  0.272727  0.090909  0.181818      2.000000
  0.363636  0.090909  0.181818      2.000000
  0.454545  0.090909  0.181818      2.000000
 -0.454545  0.090909  0.181818      2.000000
 -0.363636  0.090909  0.181818      2.000000
 -0.272727  0.090909  0.181818      2.000000
 -0.181818  0.090909  0.181818      2.000000
 -0.090909  0.090909  0.181818      2.000000
  0.000000  0.181818  0.181818      2.000000
  0.090909  0.181818  0.181818      2.000000
  0.181818  0.181818  0.181818      2.000000
  0.272727  0.181818  0.181818      2.000000
  0.363636  0.181818  0.181818      2.000000
  0.454545  0.181818  0.181818      2.000000
 -0.454545  0.181818  0.181818      2.000000
 -0.363636  0.181818  0.181818      2.000000
 -0.272727  0.181818  0.181818      2.000000
 -0.181818  0.181818  0.181818      2.000000
 -0.090909  0.181818  0.181818      2.000000
  0.000000  0.272727  0.181818      2.000000
  0.090909  0.272727  0.181818      2.000000
  0.181818  0.272727  0.181818      2.000000
  0.272727  0.272727  0.181818      2.000000
  0.363636  0.272727  0.181818      2.000000
  0.454545  0.272727  0.181818      2.000000
 -0.454545  0.272727  0.181818      2.000000
 -0.363636  0.272727  0.181818      2.000000
 -0.272727  0.272727  0.181818      2.000000
 -0.181818  0.272727  0.181818      2.000000
 -0.090909  0.272727  0.181818      2.000000
  0.000000  0.363636  0.181818      2.000000
  0.090909  0.363636  0.181818      2.000000
  0.181818  0.363636  0.181818      2.000000
  0.272727  0.363636  0.181818      2.000000
  0.363636  0.363636  0.181818      2.000000
  0.454545  0.363636  0.181818      2.000000
 -0.454545  0.363636  0.181818      2.000000
 -0.363636  0.363636  0.181818      2.000000
 -0.272727  0.363636  0.181818      2.000000
 -0.181818  0.363636  0.181818      2.000000
 -0.090909  0.363636  0.181818      2.000000
  0.000000  0.454545  0.181818      2.000000
  0.090909  0.454545  0.181818      2.000000
  0.181818  0.454545  0.181818      2.000000
  0.272727  0.454545  0.181818      2.000000
  0.363636  0.454545  0.181818      2.000000
  0.454545  0.454545  0.181818      2.000000
 -0.454545  0.454545  0.181818      2.000000
 -0.363636  0.454545  0.181818      2.000000
 -0.272727  0.454545  0.181818      2.000000
 -0.181818  0.454545  0.181818      2.000000
 -0.090909  0.454545  0.181818      2.000000
  0.000000 -0.454545  0.181818      2.000000
  0.090909 -0.454545  0.181818      2.000000
  0.181818 -0.454545  0.181818      2.000000
  0.272727 -0.454545  0.181818      2.000000
  0.363636 -0.454545  0.181818      2.000000
  0.454545 -0.454545  0.181818      2.000000
 -0.454545 -0.454545  0.181818      2.000000
 -0.363636 -0.454545  0.181818      2.000000
 -0.272727 -0.454545  0.181818      2.000000
 -0.181818 -0.454545  0.181818      2.000000
 -0.090909 -0.454545  0.181818      2.000000
  0.000000 -0.363636  0.181818      2.000000
  0.090909 -0.363636  0.181818      2.000000
  0.181818 -0.363636  0.181818      2.000000
  0.272727 -0.363636  0.181818      2.000000
  0.363636 -0.363636  0.181818      2.000000
  0.454545 -0.363636  0.181818      2.000000
 -0.454545 -0.363636  0.181818      2.000000
 -0.363636 -0.363636  0.181818      2.000000
 -0.272727 -0.363636  0.181818      2.000000
 -0.181818 -0.363636  0.181818      2.000000
 -0.090909 -0.363636  0.181818      2.000000
  0.000000 -0.272727  0.181818      2.000000
  0.090909 -0.272727  0.181818      2.000000
  0.181818 -0.272727  0.181818      2.000000
  0.272727 -0.272727  0.181818      2.000000
  0.363636 -0.272727  0.181818      2.000000
  0.454545 -0.272727  0.181818      2.000000
 -0.454545 -0.272727  0.181818      2.000000
 -0.363636 -0.272727  0.181818      2.000000
 -0.272727 -0.272727  0.181818      2.000000
 -0.181818 -0.272727  0.181818      2.000000
 -0.090909 -0.272727  0.181818      2.000000
  0.000000 -0.181818  0.181818      2.000000
  0.090909 -0.181818  0.181818      2.000000
  0.181818 -0.181818  0.181818      2.000000
  0.272727 -0.181818  0.181818      2.000000
  0.363636 -0.181818  0.181818      2.000000
  0.454545 -0.181818  0.181818      2.000000
 -0.454545 -0.181818  0.181818      2.000000
 -0.363636 -0.181818  0.181818      2.000000
 -0.272727 -0.181818  0.181818      2.000000
 -0.181818 -0.181818  0.181818      2.000000
 -0.090909 -0.181818  0.181818      2.000000
  0.000000 -0.090909  0.181818      2.000000
  0.090909 -0.090909  0.181818      2.000000
  0.181818 -0.090909  0.181818      2.000000
  0.272727 -0.090909  0.181818      2.000000
  0.363636 -0.090909  0.181818      2.000000
  0.454545 -0.090909  0.181818      2.000000
 -0.454545 -0.090909  0.181818      2.000000
 -0.363636 -0.090909  0.181818      2.000000
 -0.272727 -0.090909  0.181818      2.000000
 -0.181818 -0.090909  0.181818      2.000000
 -0.090909 -0.090909  0.181818      2.000000
  0.000000  0.000000  0.272727      2.000000
  0.090909  0.000000  0.272727      2.000000
  0.181818  0.000000  0.272727      2.000000
  0.272727  0.000000  0.272727      2.000000
  0.363636  0.000000  0.272727      2.000000
  0.454545  0.000000  0.272727      2.000000
 -0.454545  0.000000  0.272727      2.000000
 -0.363636  0.000000  0.272727      2.000000
 -0.272727  0.000000  0.272727      2.000000
 -0.181818  0.000000  0.272727      2.000000
 -0.090909  0.000000  0.272727      2.000000
  0.000000  0.090909  0.272727      2.000000
  0.090909  0.090909  0.272727      2.000000
  0.181818  0.090909  0.272727      2.000000
  0.272727  0.090909  0.272727      2.000000
  0.363636  0.090909  0.272727      2.000000
  0.454545  0.090909  0.272727      2.000000
 -0.454545  0.090909  0.272727      2.000000
 -0.363636  0.090909  0.272727      2.000000
 -0.272727  0.090909  0.272727      2.000000
 -0.181818  0.090909  0.272727      2.000000
 -0.090909  0.090909  0.272727      2.000000
  0.000000  0.181818  0.272727      2.000000
  0.090909  0.181818  0.272727      2.000000
  0.181818  0.181818  0.272727      2.000000
  0.272727  0.181818  0.272727      2.000000
  0.363636  0.181818  0.272727      2.000000
  0.454545  0.181818  0.272727      2.000000
 -0.454545  0.181818  0.272727      2.000000
 -0.363636  0.181818  0.272727      2.000000
 -0.272727  0.181818  0.272727      2.000000
 -0.181818  0.181818  0.272727      2.000000
 -0.090909  0.181818  0.272727      2.000000
  0.000000  0.272727  0.272727      2.000000
  0.090909  0.272727  0.272727      2.000000
  0.181818  0.272727  0.272727      2.000000
  0.272727  0.272727  0.272727      2.000000
  0.363636  0.272727  0.272727      2.000000
  0.454545  0.272727  0.272727      2.000000
 -0.454545  0.272727  0.272727      2.000000
 -0.363636  0.272727  0.272727      2.000000
 -0.272727  0.272727  0.272727      2.000000
 -0.181818  0.272727  0.272727      2.000000
 -0.090909  0.272727  0.272727      2.000000
  0.000000  0.363636  0.272727      2.000000
  0.090909  0.363636  0.272727      2.000000
  0.181818  0.363636  0.272727      2.000000
  0.272727  0.363636  0.272727      2.000000
  0.363636  0.363636  0.272727      2.000000
  0.454545  0.363636  0.272727      2.000000
 -0.454545  0.363636  0.272727      2.000000
 -0.363636  0.363636  0.272727      2.000000
 -0.272727  0.363636  0.272727      2.000000
 -0.181818  0.363636  0.272727      2.000000
 -0.090909  0.363636  0.272727      2.000000
  0.000000  0.454545  0.272727      2.000000
  0.090909  0.454545  0.272727      2.000000
  0.181818  0.454545  0.272727      2.000000
  0.272727  0.454545  0.272727      2.000000
  0.363636  0.454545  0.272727      2.000000
  0.454545  0.454545  0.272727      2.000000
 -0.454545  0.454545  0.272727      2.000000
 -0.363636  0.454545  0.272727      2.000000
 -0.272727  0.454545  0.272727      2.000000
 -0.181818  0.454545  0.272727      2.000000
 -0.090909  0.454545  0.272727      2.000000
  0.000000 -0.454545  0.272727      2.000000
  0.090909 -0.454545  0.272727      2.000000
  0.181818 -0.454545  0.272727      2.000000
  0.272727 -0.454545  0.272727      2.000000
  0.363636 -0.454545  0.272727      2.000000
  0.454545 -0.454545  0.272727      2.000000
 -0.454545 -0.454545  0.272727      2.000000
 -0.363636 -0.454545  0.272727      2.000000
 -0.272727 -0.454545  0.272727      2.000000
 -0.181818 -0.454545  0.272727      2.000000
 -0.090909 -0.454545  0.272727      2.000000
  0.000000 -0.363636  0.272727      2.000000
  0.090909 -0.363636  0.272727      2.000000
  0.181818 -0.363636  0.272727      2.000000
  0.272727 -0.363636  0.272727      2.000000
  0.363636 -0.363636  0.272727      2.000000
  0.454545 -0.363636  0.272727      2.000000
 -0.454545 -0.363636  0.272727      2.000000
 -0.363636 -0.363636  0.272727      2.000000
 -0.272727 -0.363636  0.272727      2.000000
 -0.181818 -0.363636  0.272727      2.000000
 -0.090909 -0.363636  0.272727      2.000000
  0.000000 -0.272727  0.272727      2.000000
  0.090909 -0.272727  0.272727      2.000000
  0.181818 -0.272727  0.272727      2.000000
  0.272727 -0.272727  0.272727      2.000000
  0.363636 -0.272727  0.272727      2.000000
  0.454545 -0.272727  0.272727      2.000000
 -0.454545 -0.272727  0.272727      2.000000
 -0.363636 -0.272727  0.272727      2.000000
 -0.272727 -0.272727  0.272727      2.000000
 -0.181818 -0.272727  0.272727      2.000000
 -0.090909 -0.272727  0.272727      2.000000
  0.000000 -0.181818  0.272727      2.000000
  0.090909 -0.181818  0.272727      2.000000
  0.181818 -0.181818  0.272727      2.000000
  0.272727 -0.181818  0.272727      2.000000
  0.363636 -0.181818  0.272727      2.000000
  0.454545 -0.181818  0.272727      2.000000
 -0.454545 -0.181818  0.272727      2.000000
 -0.363636 -0.181818  0.272727      2.000000
 -0.272727 -0.181818  0.272727      2.000000
 -0.181818 -0.181818  0.272727      2.000000
 -0.090909 -0.181818  0.272727      2.000000
  0.000000 -0.090909  0.272727      2.000000
  0.090909 -0.090909  0.272727      2.000000
  0.181818 -0.090909  0.272727      2.000000
  0.272727 -0.090909  0.272727      2.000000
  0.363636 -0.090909  0.272727      2.000000
  0.454545 -0.090909  0.272727      2.000000
 -0.454545 -0.090909  0.272727      2.000000
 -0.363636 -0.090909  0.272727      2.000000
 -0.272727 -0.090909  0.272727      2.000000
 -0.181818 -0.090909  0.272727      2.000000
 -0.090909 -0.090909  0.272727      2.000000
  0.000000  0.000000  0.363636      2.000000
  0.090909  0.000000  0.363636      2.000000
  0.181818  0.000000  0.363636      2.000000
  0.272727  0.000000  0.363636      2.000000
  0.363636  0.000000  0.363636      2.000000
  0.454545  0.000000  0.363636      2.000000
 -0.454545  0.000000  0.363636      2.000000
 -0.363636  0.000000  0.363636      2.000000
 -0.272727  0.000000  0.363636      2.000000
 -0.181818  0.000000  0.363636      2.000000
 -0.090909  0.000000  0.363636      2.000000
  0.000000  0.090909  0.363636      2.000000
  0.090909  0.090909  0.363636      2.000000
  0.181818  0.090909  0.363636      2.000000
  0.272727  0.090909  0.363636      2.000000
  0.363636  0.090909  0.363636      2.000000
  0.454545  0.090909  0.363636      2.000000
 -0.454545  0.090909  0.363636      2.000000
 -0.363636  0.090909  0.363636      2.000000
 -0.272727  0.090909  0.363636      2.000000
 -0.181818  0.090909  0.363636      2.000000
 -0.090909  0.090909  0.363636      2.000000
  0.000000  0.181818  0.363636      2.000000
  0.090909  0.181818  0.363636      2.000000
  0.181818  0.181818  0.363636      2.000000
  0.272727  0.181818  0.363636      2.000000
  0.363636  0.181818  0.363636      2.000000
  0.454545  0.181818  0.363636      2.000000
 -0.454545  0.181818  0.363636      2.000000
 -0.363636  0.181818  0.363636      2.000000
 -0.272727  0.181818  0.363636      2.000000
 -0.181818  0.181818  0.363636      2.000000
 -0.090909  0.181818  0.363636      2.000000
  0.000000  0.272727  0.363636      2.000000
  0.090909  0.272727  0.363636      2.000000
  0.181818  0.272727  0.363636      2.000000
  0.272727  0.272727  0.363636      2.000000
  0.363636  0.272727  0.363636      2.000000
  0.454545  0.272727  0.363636      2.000000
 -0.454545  0.272727  0.363636      2.000000
 -0.363636  0.272727  0.363636      2.000000
 -0.272727  0.272727  0.363636      2.000000
 -0.181818  0.272727  0.363636      2.000000
 -0.090909  0.272727  0.363636      2.000000
  0.000000  0.363636  0.363636      2.000000
  0.090909  0.363636  0.363636      2.000000
  0.181818  0.363636  0.363636      2.000000
  0.272727  0.363636  0.363636      2.000000
  0.363636  0.363636  0.363636      2.000000
  0.454545  0.363636  0.363636      2.000000
 -0.454545  0.363636  0.363636      2.000000
 -0.363636  0.363636  0.363636      2.000000
 -0.272727  0.363636  0.363636      2.000000
 -0.181818  0.363636  0.363636      2.000000
 -0.090909  0.363636  0.363636      2.000000
  0.000000  0.454545  0.363636      2.000000
  0.090909  0.454545  0.363636      2.000000
  0.181818  0.454545  0.363636      2.000000
  0.272727  0.454545  0.363636      2.000000
  0.363636  0.454545  0.363636      2.000000
  0.454545  0.454545  0.363636      2.000000
 -0.454545  0.454545  0.363636      2.000000
 -0.363636  0.454545  0.363636      2.000000
 -0.272727  0.454545  0.363636      2.000000
 -0.181818  0.454545  0.363636      2.000000
 -0.090909  0.454545  0.363636      2.000000
  0.000000 -0.454545  0.363636      2.000000
  0.090909 -0.454545  0.363636      2.000000
  0.181818 -0.454545  0.363636      2.000000
  0.272727 -0.454545  0.363636      2.000000
  0.363636 -0.454545  0.363636      2.000000
  0.454545 -0.454545  0.363636      2.000000
 -0.454545 -0.454545  0.363636      2.000000
 -0.363636 -0.454545  0.363636      2.000000
 -0.272727 -0.454545  0.363636      2.000000
 -0.181818 -0.454545  0.363636      2.000000
 -0.090909 -0.454545  0.363636      2.000000
  0.000000 -0.363636  0.363636      2.000000
  0.090909 -0.363636  0.363636      2.000000
  0.181818 -0.363636  0.363636      2.000000
  0.272727 -0.363636  0.363636      2.000000
  0.363636 -0.363636  0.363636      2.000000
  0.454545 -0.363636  0.363636      2.000000
 -0.454545 -0.363636  0.363636      2.000000
 -0.363636 -0.363636  0.363636      2.000000
 -0.272727 -0.363636  0.363636      2.000000
 -0.181818 -0.363636  0.363636      2.000000
 -0.090909 -0.363636  0.363636      2.000000
  0.000000 -0.272727  0.363636      2.000000
  0.090909 -0.272727  0.363636      2.000000
  0.181818 -0.272727  0.363636      2.000000
  0.272727 -0.272727  0.363636      2.000000
  0.363636 -0.272727  0.363636      2.000000
  0.454545 -0.272727  0.363636      2.000000
 -0.454545 -0.272727  0.363636      2.000000
 -0.363636 -0.272727  0.363636      2.000000
 -0.272727 -0.272727  0.363636      2.000000
 -0.181818 -0.272727  0.363636      2.000000
 -0.090909 -0.272727  0.363636      2.000000
  0.000000 -0.181818  0.363636      2.000000
  0.090909 -0.181818  0.363636      2.000000
  0.181818 -0.181818  0.363636      2.000000
  0.272727 -0.181818  0.363636      2.000000
  0.363636 -0.181818  0.363636      2.000000
  0.454545 -0.181818  0.363636      2.000000
 -0.454545 -0.181818  0.363636      2.000000
 -0.363636 -0.181818  0.363636      2.000000
 -0.272727 -0.181818  0.363636      2.000000
 -0.181818 -0.181818  0.363636      2.000000
 -0.090909 -0.181818  0.363636      2.000000
  0.000000 -0.090909  0.363636      2.000000
  0.090909 -0.090909  0.363636      2.000000
  0.181818 -0.090909  0.363636      2.000000
  0.272727 -0.090909  0.363636      2.000000
  0.363636 -0.090909  0.363636      2.000000
  0.454545 -0.090909  0.363636      2.000000
 -0.454545 -0.090909  0.363636      2.000000
 -0.363636 -0.090909  0.363636      2.000000
 -0.272727 -0.090909  0.363636      2.000000
 -0.181818 -0.090909  0.363636      2.000000
 -0.090909 -0.090909  0.363636      2.000000
  0.000000  0.000000  0.454545      2.000000
  0.090909  0.000000  0.454545      2.000000
  0.181818  0.000000  0.454545      2.000000
  0.272727  0.000000  0.454545      2.000000
  0.363636  0.000000  0.454545      2.000000
  0.454545  0.000000  0.454545      2.000000
 -0.454545  0.000000  0.454545      2.000000
 -0.363636  0.000000  0.454545      2.000000
 -0.272727  0.000000  0.454545      2.000000
 -0.181818  0.000000  0.454545      2.000000
 -0.090909  0.000000  0.454545      2.000000
  0.000000  0.090909  0.454545      2.000000
  0.090909  0.090909  0.454545      2.000000
  0.181818  0.090909  0.454545      2.000000
  0.272727  0.090909  0.454545      2.000000
  0.363636  0.090909  0.454545      2.000000
  0.454545  0.090909  0.454545      2.000000
 -0.454545  0.090909  0.454545      2.000000
 -0.363636  0.090909  0.454545      2.000000
 -0.272727  0.090909  0.454545      2.000000
 -0.181818  0.090909  0.454545      2.000000
 -0.090909  0.090909  0.454545      2.000000
  0.000000  0.181818  0.454545      2.000000
  0.090909  0.181818  0.454545      2.000000
  0.181818  0.181818  0.454545      2.000000
  0.272727  0.181818  0.454545      2.000000
  0.363636  0.181818  0.454545      2.000000
  0.454545  0.181818  0.454545      2.000000
 -0.454545  0.181818  0.454545      2.000000
 -0.363636  0.181818  0.454545      2.000000
 -0.272727  0.181818  0.454545      2.000000
 -0.181818  0.181818  0.454545      2.000000
 -0.090909  0.181818  0.454545      2.000000
  0.000000  0.272727  0.454545      2.000000
  0.090909  0.272727  0.454545      2.000000
  0.181818  0.272727  0.454545      2.000000
  0.272727  0.272727  0.454545      2.000000
  0.363636  0.272727  0.454545      2.000000
  0.454545  0.272727  0.454545      2.000000
 -0.454545  0.272727  0.454545      2.000000
 -0.363636  0.272727  0.454545      2.000000
 -0.272727  0.272727  0.454545      2.000000
 -0.181818  0.272727  0.454545      2.000000
 -0.090909  0.272727  0.454545      2.000000
  0.000000  0.363636  0.454545      2.000000
  0.090909  0.363636  0.454545      2.000000
  0.181818  0.363636  0.454545      2.000000
  0.272727  0.363636  0.454545      2.000000
  0.363636  0.363636  0.454545      2.000000
  0.454545  0.363636  0.454545      2.000000
 -0.454545  0.363636  0.454545      2.000000
 -0.363636  0.363636  0.454545      2.000000
 -0.272727  0.363636  0.454545      2.000000
 -0.181818  0.363636  0.454545      2.000000
 -0.090909  0.363636  0.454545      2.000000
  0.000000  0.454545  0.454545      2.000000
  0.090909  0.454545  0.454545      2.000000
  0.181818  0.454545  0.454545      2.000000
  0.272727  0.454545  0.454545      2.000000
  0.363636  0.454545  0.454545      2.000000
  0.454545  0.454545  0.454545      2.000000
 -0.454545  0.454545  0.454545      2.000000
 -0.363636  0.454545  0.454545      2.000000
 -0.272727  0.454545  0.454545      2.000000
 -0.181818  0.454545  0.454545      2.000000
 -0.090909  0.454545  0.454545      2.000000
  0.000000 -0.454545  0.454545      2.000000
  0.090909 -0.454545  0.454545      2.000000
  0.181818 -0.454545  0.454545      2.000000
  0.272727 -0.454545  0.454545      2.000000
  0.363636 -0.454545  0.454545      2.000000
  0.454545 -0.454545  0.454545      2.000000
 -0.454545 -0.454545  0.454545      2.000000
 -0.363636 -0.454545  0.454545      2.000000
 -0.272727 -0.454545  0.454545      2.000000
 -0.181818 -0.454545  0.454545      2.000000
 -0.090909 -0.454545  0.454545      2.000000
  0.000000 -0.363636  0.454545      2.000000
  0.090909 -0.363636  0.454545      2.000000
  0.181818 -0.363636  0.454545      2.000000
  0.272727 -0.363636  0.454545      2.000000
  0.363636 -0.363636  0.454545      2.000000
  0.454545 -0.363636  0.454545      2.000000
 -0.454545 -0.363636  0.454545      2.000000
 -0.363636 -0.363636  0.454545      2.000000
 -0.272727 -0.363636  0.454545      2.000000
 -0.181818 -0.363636  0.454545      2.000000
 -0.090909 -0.363636  0.454545      2.000000
  0.000000 -0.272727  0.454545      2.000000
  0.090909 -0.272727  0.454545      2.000000
  0.181818 -0.272727  0.454545      2.000000
  0.272727 -0.272727  0.454545      2.000000
  0.363636 -0.272727  0.454545      2.000000
  0.454545 -0.272727  0.454545      2.000000
 -0.454545 -0.272727  0.454545      2.000000
 -0.363636 -0.272727  0.454545      2.000000
 -0.272727 -0.272727  0.454545      2.000000
 -0.181818 -0.272727  0.454545      2.000000
 -0.090909 -0.272727  0.454545      2.000000
  0.000000 -0.181818  0.454545      2.000000
  0.090909 -0.181818  0.454545      2.000000
  0.181818 -0.181818  0.454545      2.000000
  0.272727 -0.181818  0.454545      2.000000
  0.363636 -0.181818  0.454545      2.000000
  0.454545 -0.181818  0.454545      2.000000
 -0.454545 -0.181818  0.454545      2.000000
 -0.363636 -0.181818  0.454545      2.000000
 -0.272727 -0.181818  0.454545      2.000000
 -0.181818 -0.181818  0.454545      2.000000
 -0.090909 -0.181818  0.454545      2.000000
  0.000000 -0.090909  0.454545      2.000000
  0.090909 -0.090909  0.454545      2.000000
  0.181818 -0.090909  0.454545      2.000000
  0.272727 -0.090909  0.454545      2.000000
  0.363636 -0.090909  0.454545      2.000000
  0.454545 -0.090909  0.454545      2.000000
 -0.454545 -0.090909  0.454545      2.000000
 -0.363636 -0.090909  0.454545      2.000000
 -0.272727 -0.090909  0.454545      2.000000
 -0.181818 -0.090909  0.454545      2.000000
 -0.090909 -0.090909  0.454545      2.000000
 
 Following cartesian coordinates:
            Coordinates               Weight
  0.000000  0.000000  0.000000      1.000000
  0.023492  0.000000  0.000000      2.000000
  0.046983  0.000000  0.000000      2.000000
  0.070475  0.000000  0.000000      2.000000
  0.093966  0.000000  0.000000      2.000000
  0.117458  0.000000  0.000000      2.000000
  0.000000  0.023492  0.000000      2.000000
  0.023492  0.023492  0.000000      2.000000
  0.046983  0.023492  0.000000      2.000000
  0.070475  0.023492  0.000000      2.000000
  0.093966  0.023492  0.000000      2.000000
  0.117458  0.023492  0.000000      2.000000
 -0.117458  0.023492  0.000000      2.000000
 -0.093966  0.023492  0.000000      2.000000
 -0.070475  0.023492  0.000000      2.000000
 -0.046983  0.023492  0.000000      2.000000
 -0.023492  0.023492  0.000000      2.000000
  0.000000  0.046983  0.000000      2.000000
  0.023492  0.046983  0.000000      2.000000
  0.046983  0.046983  0.000000      2.000000
  0.070475  0.046983  0.000000      2.000000
  0.093966  0.046983  0.000000      2.000000
  0.117458  0.046983  0.000000      2.000000
 -0.117458  0.046983  0.000000      2.000000
 -0.093966  0.046983  0.000000      2.000000
 -0.070475  0.046983  0.000000      2.000000
 -0.046983  0.046983  0.000000      2.000000
 -0.023492  0.046983  0.000000      2.000000
  0.000000  0.070475  0.000000      2.000000
  0.023492  0.070475  0.000000      2.000000
  0.046983  0.070475  0.000000      2.000000
  0.070475  0.070475  0.000000      2.000000
  0.093966  0.070475  0.000000      2.000000
  0.117458  0.070475  0.000000      2.000000
 -0.117458  0.070475  0.000000      2.000000
 -0.093966  0.070475  0.000000      2.000000
 -0.070475  0.070475  0.000000      2.000000
 -0.046983  0.070475  0.000000      2.000000
 -0.023492  0.070475  0.000000      2.000000
  0.000000  0.093966  0.000000      2.000000
  0.023492  0.093966  0.000000      2.000000
  0.046983  0.093966  0.000000      2.000000
  0.070475  0.093966  0.000000      2.000000
  0.093966  0.093966  0.000000      2.000000
  0.117458  0.093966  0.000000      2.000000
 -0.117458  0.093966  0.000000      2.000000
 -0.093966  0.093966  0.000000      2.000000
 -0.070475  0.093966  0.000000      2.000000
 -0.046983  0.093966  0.000000      2.000000
 -0.023492  0.093966  0.000000      2.000000
  0.000000  0.117458  0.000000      2.000000
  0.023492  0.117458  0.000000      2.000000
  0.046983  0.117458  0.000000      2.000000
  0.070475  0.117458  0.000000      2.000000
  0.093966  0.117458  0.000000      2.000000
  0.117458  0.117458  0.000000      2.000000
 -0.117458  0.117458  0.000000      2.000000
 -0.093966  0.117458  0.000000      2.000000
 -0.070475  0.117458  0.000000      2.000000
 -0.046983  0.117458  0.000000      2.000000
 -0.023492  0.117458  0.000000      2.000000
  0.000000  0.000000  0.023492      2.000000
  0.023492  0.000000  0.023492      2.000000
  0.046983  0.000000  0.023492      2.000000
  0.070475  0.000000  0.023492      2.000000
  0.093966  0.000000  0.023492      2.000000
  0.117458  0.000000  0.023492      2.000000
 -0.117458  0.000000  0.023492      2.000000
 -0.093966  0.000000  0.023492      2.000000
 -0.070475  0.000000  0.023492      2.000000
 -0.046983  0.000000  0.023492      2.000000
 -0.023492  0.000000  0.023492      2.000000
  0.000000  0.023492  0.023492      2.000000
  0.023492  0.023492  0.023492      2.000000
  0.046983  0.023492  0.023492      2.000000
  0.070475  0.023492  0.023492      2.000000
  0.093966  0.023492  0.023492      2.000000
  0.117458  0.023492  0.023492      2.000000
 -0.117458  0.023492  0.023492      2.000000
 -0.093966  0.023492  0.023492      2.000000
 -0.070475  0.023492  0.023492      2.000000
 -0.046983  0.023492  0.023492      2.000000
 -0.023492  0.023492  0.023492      2.000000
  0.000000  0.046983  0.023492      2.000000
  0.023492  0.046983  0.023492      2.000000
  0.046983  0.046983  0.023492      2.000000
  0.070475  0.046983  0.023492      2.000000
  0.093966  0.046983  0.023492      2.000000
  0.117458  0.046983  0.023492      2.000000
 -0.117458  0.046983  0.023492      2.000000
 -0.093966  0.046983  0.023492      2.000000
 -0.070475  0.046983  0.023492      2.000000
 -0.046983  0.046983  0.023492      2.000000
 -0.023492  0.046983  0.023492      2.000000
  0.000000  0.070475  0.023492      2.000000
  0.023492  0.070475  0.023492      2.000000
  0.046983  0.070475  0.023492      2.000000
  0.070475  0.070475  0.023492      2.000000
  0.093966  0.070475  0.023492      2.000000
  0.117458  0.070475  0.023492      2.000000
 -0.117458  0.070475  0.023492      2.000000
 -0.093966  0.070475  0.023492      2.000000
 -0.070475  0.070475  0.023492      2.000000
 -0.046983  0.070475  0.023492      2.000000
 -0.023492  0.070475  0.023492      2.000000
  0.000000  0.093966  0.023492      2.000000
  0.023492  0.093966  0.023492      2.000000
  0.046983  0.093966  0.023492      2.000000
  0.070475  0.093966  0.023492      2.000000
  0.093966  0.093966  0.023492      2.000000
  0.117458  0.093966  0.023492      2.000000
 -0.117458  0.093966  0.023492      2.000000
 -0.093966  0.093966  0.023492      2.000000
 -0.070475  0.093966  0.023492      2.000000
 -0.046983  0.093966  0.023492      2.000000
 -0.023492  0.093966  0.023492      2.000000
  0.000000  0.117458  0.023492      2.000000
  0.023492  0.117458  0.023492      2.000000
  0.046983  0.117458  0.023492      2.000000
  0.070475  0.117458  0.023492      2.000000
  0.093966  0.117458  0.023492      2.000000
  0.117458  0.117458  0.023492      2.000000
 -0.117458  0.117458  0.023492      2.000000
 -0.093966  0.117458  0.023492      2.000000
 -0.070475  0.117458  0.023492      2.000000
 -0.046983  0.117458  0.023492      2.000000
 -0.023492  0.117458  0.023492      2.000000
  0.000000 -0.117458  0.023492      2.000000
  0.023492 -0.117458  0.023492      2.000000
  0.046983 -0.117458  0.023492      2.000000
  0.070475 -0.117458  0.023492      2.000000
  0.093966 -0.117458  0.023492      2.000000
  0.117458 -0.117458  0.023492      2.000000
 -0.117458 -0.117458  0.023492      2.000000
 -0.093966 -0.117458  0.023492      2.000000
 -0.070475 -0.117458  0.023492      2.000000
 -0.046983 -0.117458  0.023492      2.000000
 -0.023492 -0.117458  0.023492      2.000000
  0.000000 -0.093966  0.023492      2.000000
  0.023492 -0.093966  0.023492      2.000000
  0.046983 -0.093966  0.023492      2.000000
  0.070475 -0.093966  0.023492      2.000000
  0.093966 -0.093966  0.023492      2.000000
  0.117458 -0.093966  0.023492      2.000000
 -0.117458 -0.093966  0.023492      2.000000
 -0.093966 -0.093966  0.023492      2.000000
 -0.070475 -0.093966  0.023492      2.000000
 -0.046983 -0.093966  0.023492      2.000000
 -0.023492 -0.093966  0.023492      2.000000
  0.000000 -0.070475  0.023492      2.000000
  0.023492 -0.070475  0.023492      2.000000
  0.046983 -0.070475  0.023492      2.000000
  0.070475 -0.070475  0.023492      2.000000
  0.093966 -0.070475  0.023492      2.000000
  0.117458 -0.070475  0.023492      2.000000
 -0.117458 -0.070475  0.023492      2.000000
 -0.093966 -0.070475  0.023492      2.000000
 -0.070475 -0.070475  0.023492      2.000000
 -0.046983 -0.070475  0.023492      2.000000
 -0.023492 -0.070475  0.023492      2.000000
  0.000000 -0.046983  0.023492      2.000000
  0.023492 -0.046983  0.023492      2.000000
  0.046983 -0.046983  0.023492      2.000000
  0.070475 -0.046983  0.023492      2.000000
  0.093966 -0.046983  0.023492      2.000000
  0.117458 -0.046983  0.023492      2.000000
 -0.117458 -0.046983  0.023492      2.000000
 -0.093966 -0.046983  0.023492      2.000000
 -0.070475 -0.046983  0.023492      2.000000
 -0.046983 -0.046983  0.023492      2.000000
 -0.023492 -0.046983  0.023492      2.000000
  0.000000 -0.023492  0.023492      2.000000
  0.023492 -0.023492  0.023492      2.000000
  0.046983 -0.023492  0.023492      2.000000
  0.070475 -0.023492  0.023492      2.000000
  0.093966 -0.023492  0.023492      2.000000
  0.117458 -0.023492  0.023492      2.000000
 -0.117458 -0.023492  0.023492      2.000000
 -0.093966 -0.023492  0.023492      2.000000
 -0.070475 -0.023492  0.023492      2.000000
 -0.046983 -0.023492  0.023492      2.000000
 -0.023492 -0.023492  0.023492      2.000000
  0.000000  0.000000  0.046983      2.000000
  0.023492  0.000000  0.046983      2.000000
  0.046983  0.000000  0.046983      2.000000
  0.070475  0.000000  0.046983      2.000000
  0.093966  0.000000  0.046983      2.000000
  0.117458  0.000000  0.046983      2.000000
 -0.117458  0.000000  0.046983      2.000000
 -0.093966  0.000000  0.046983      2.000000
 -0.070475  0.000000  0.046983      2.000000
 -0.046983  0.000000  0.046983      2.000000
 -0.023492  0.000000  0.046983      2.000000
  0.000000  0.023492  0.046983      2.000000
  0.023492  0.023492  0.046983      2.000000
  0.046983  0.023492  0.046983      2.000000
  0.070475  0.023492  0.046983      2.000000
  0.093966  0.023492  0.046983      2.000000
  0.117458  0.023492  0.046983      2.000000
 -0.117458  0.023492  0.046983      2.000000
 -0.093966  0.023492  0.046983      2.000000
 -0.070475  0.023492  0.046983      2.000000
 -0.046983  0.023492  0.046983      2.000000
 -0.023492  0.023492  0.046983      2.000000
  0.000000  0.046983  0.046983      2.000000
  0.023492  0.046983  0.046983      2.000000
  0.046983  0.046983  0.046983      2.000000
  0.070475  0.046983  0.046983      2.000000
  0.093966  0.046983  0.046983      2.000000
  0.117458  0.046983  0.046983      2.000000
 -0.117458  0.046983  0.046983      2.000000
 -0.093966  0.046983  0.046983      2.000000
 -0.070475  0.046983  0.046983      2.000000
 -0.046983  0.046983  0.046983      2.000000
 -0.023492  0.046983  0.046983      2.000000
  0.000000  0.070475  0.046983      2.000000
  0.023492  0.070475  0.046983      2.000000
  0.046983  0.070475  0.046983      2.000000
  0.070475  0.070475  0.046983      2.000000
  0.093966  0.070475  0.046983      2.000000
  0.117458  0.070475  0.046983      2.000000
 -0.117458  0.070475  0.046983      2.000000
 -0.093966  0.070475  0.046983      2.000000
 -0.070475  0.070475  0.046983      2.000000
 -0.046983  0.070475  0.046983      2.000000
 -0.023492  0.070475  0.046983      2.000000
  0.000000  0.093966  0.046983      2.000000
  0.023492  0.093966  0.046983      2.000000
  0.046983  0.093966  0.046983      2.000000
  0.070475  0.093966  0.046983      2.000000
  0.093966  0.093966  0.046983      2.000000
  0.117458  0.093966  0.046983      2.000000
 -0.117458  0.093966  0.046983      2.000000
 -0.093966  0.093966  0.046983      2.000000
 -0.070475  0.093966  0.046983      2.000000
 -0.046983  0.093966  0.046983      2.000000
 -0.023492  0.093966  0.046983      2.000000
  0.000000  0.117458  0.046983      2.000000
  0.023492  0.117458  0.046983      2.000000
  0.046983  0.117458  0.046983      2.000000
  0.070475  0.117458  0.046983      2.000000
  0.093966  0.117458  0.046983      2.000000
  0.117458  0.117458  0.046983      2.000000
 -0.117458  0.117458  0.046983      2.000000
 -0.093966  0.117458  0.046983      2.000000
 -0.070475  0.117458  0.046983      2.000000
 -0.046983  0.117458  0.046983      2.000000
 -0.023492  0.117458  0.046983      2.000000
  0.000000 -0.117458  0.046983      2.000000
  0.023492 -0.117458  0.046983      2.000000
  0.046983 -0.117458  0.046983      2.000000
  0.070475 -0.117458  0.046983      2.000000
  0.093966 -0.117458  0.046983      2.000000
  0.117458 -0.117458  0.046983      2.000000
 -0.117458 -0.117458  0.046983      2.000000
 -0.093966 -0.117458  0.046983      2.000000
 -0.070475 -0.117458  0.046983      2.000000
 -0.046983 -0.117458  0.046983      2.000000
 -0.023492 -0.117458  0.046983      2.000000
  0.000000 -0.093966  0.046983      2.000000
  0.023492 -0.093966  0.046983      2.000000
  0.046983 -0.093966  0.046983      2.000000
  0.070475 -0.093966  0.046983      2.000000
  0.093966 -0.093966  0.046983      2.000000
  0.117458 -0.093966  0.046983      2.000000
 -0.117458 -0.093966  0.046983      2.000000
 -0.093966 -0.093966  0.046983      2.000000
 -0.070475 -0.093966  0.046983      2.000000
 -0.046983 -0.093966  0.046983      2.000000
 -0.023492 -0.093966  0.046983      2.000000
  0.000000 -0.070475  0.046983      2.000000
  0.023492 -0.070475  0.046983      2.000000
  0.046983 -0.070475  0.046983      2.000000
  0.070475 -0.070475  0.046983      2.000000
  0.093966 -0.070475  0.046983      2.000000
  0.117458 -0.070475  0.046983      2.000000
 -0.117458 -0.070475  0.046983      2.000000
 -0.093966 -0.070475  0.046983      2.000000
 -0.070475 -0.070475  0.046983      2.000000
 -0.046983 -0.070475  0.046983      2.000000
 -0.023492 -0.070475  0.046983      2.000000
  0.000000 -0.046983  0.046983      2.000000
  0.023492 -0.046983  0.046983      2.000000
  0.046983 -0.046983  0.046983      2.000000
  0.070475 -0.046983  0.046983      2.000000
  0.093966 -0.046983  0.046983      2.000000
  0.117458 -0.046983  0.046983      2.000000
 -0.117458 -0.046983  0.046983      2.000000
 -0.093966 -0.046983  0.046983      2.000000
 -0.070475 -0.046983  0.046983      2.000000
 -0.046983 -0.046983  0.046983      2.000000
 -0.023492 -0.046983  0.046983      2.000000
  0.000000 -0.023492  0.046983      2.000000
  0.023492 -0.023492  0.046983      2.000000
  0.046983 -0.023492  0.046983      2.000000
  0.070475 -0.023492  0.046983      2.000000
  0.093966 -0.023492  0.046983      2.000000
  0.117458 -0.023492  0.046983      2.000000
 -0.117458 -0.023492  0.046983      2.000000
 -0.093966 -0.023492  0.046983      2.000000
 -0.070475 -0.023492  0.046983      2.000000
 -0.046983 -0.023492  0.046983      2.000000
 -0.023492 -0.023492  0.046983      2.000000
  0.000000  0.000000  0.070475      2.000000
  0.023492  0.000000  0.070475      2.000000
  0.046983  0.000000  0.070475      2.000000
  0.070475  0.000000  0.070475      2.000000
  0.093966  0.000000  0.070475      2.000000
  0.117458  0.000000  0.070475      2.000000
 -0.117458  0.000000  0.070475      2.000000
 -0.093966  0.000000  0.070475      2.000000
 -0.070475  0.000000  0.070475      2.000000
 -0.046983  0.000000  0.070475      2.000000
 -0.023492  0.000000  0.070475      2.000000
  0.000000  0.023492  0.070475      2.000000
  0.023492  0.023492  0.070475      2.000000
  0.046983  0.023492  0.070475      2.000000
  0.070475  0.023492  0.070475      2.000000
  0.093966  0.023492  0.070475      2.000000
  0.117458  0.023492  0.070475      2.000000
 -0.117458  0.023492  0.070475      2.000000
 -0.093966  0.023492  0.070475      2.000000
 -0.070475  0.023492  0.070475      2.000000
 -0.046983  0.023492  0.070475      2.000000
 -0.023492  0.023492  0.070475      2.000000
  0.000000  0.046983  0.070475      2.000000
  0.023492  0.046983  0.070475      2.000000
  0.046983  0.046983  0.070475      2.000000
  0.070475  0.046983  0.070475      2.000000
  0.093966  0.046983  0.070475      2.000000
  0.117458  0.046983  0.070475      2.000000
 -0.117458  0.046983  0.070475      2.000000
 -0.093966  0.046983  0.070475      2.000000
 -0.070475  0.046983  0.070475      2.000000
 -0.046983  0.046983  0.070475      2.000000
 -0.023492  0.046983  0.070475      2.000000
  0.000000  0.070475  0.070475      2.000000
  0.023492  0.070475  0.070475      2.000000
  0.046983  0.070475  0.070475      2.000000
  0.070475  0.070475  0.070475      2.000000
  0.093966  0.070475  0.070475      2.000000
  0.117458  0.070475  0.070475      2.000000
 -0.117458  0.070475  0.070475      2.000000
 -0.093966  0.070475  0.070475      2.000000
 -0.070475  0.070475  0.070475      2.000000
 -0.046983  0.070475  0.070475      2.000000
 -0.023492  0.070475  0.070475      2.000000
  0.000000  0.093966  0.070475      2.000000
  0.023492  0.093966  0.070475      2.000000
  0.046983  0.093966  0.070475      2.000000
  0.070475  0.093966  0.070475      2.000000
  0.093966  0.093966  0.070475      2.000000
  0.117458  0.093966  0.070475      2.000000
 -0.117458  0.093966  0.070475      2.000000
 -0.093966  0.093966  0.070475      2.000000
 -0.070475  0.093966  0.070475      2.000000
 -0.046983  0.093966  0.070475      2.000000
 -0.023492  0.093966  0.070475      2.000000
  0.000000  0.117458  0.070475      2.000000
  0.023492  0.117458  0.070475      2.000000
  0.046983  0.117458  0.070475      2.000000
  0.070475  0.117458  0.070475      2.000000
  0.093966  0.117458  0.070475      2.000000
  0.117458  0.117458  0.070475      2.000000
 -0.117458  0.117458  0.070475      2.000000
 -0.093966  0.117458  0.070475      2.000000
 -0.070475  0.117458  0.070475      2.000000
 -0.046983  0.117458  0.070475      2.000000
 -0.023492  0.117458  0.070475      2.000000
  0.000000 -0.117458  0.070475      2.000000
  0.023492 -0.117458  0.070475      2.000000
  0.046983 -0.117458  0.070475      2.000000
  0.070475 -0.117458  0.070475      2.000000
  0.093966 -0.117458  0.070475      2.000000
  0.117458 -0.117458  0.070475      2.000000
 -0.117458 -0.117458  0.070475      2.000000
 -0.093966 -0.117458  0.070475      2.000000
 -0.070475 -0.117458  0.070475      2.000000
 -0.046983 -0.117458  0.070475      2.000000
 -0.023492 -0.117458  0.070475      2.000000
  0.000000 -0.093966  0.070475      2.000000
  0.023492 -0.093966  0.070475      2.000000
  0.046983 -0.093966  0.070475      2.000000
  0.070475 -0.093966  0.070475      2.000000
  0.093966 -0.093966  0.070475      2.000000
  0.117458 -0.093966  0.070475      2.000000
 -0.117458 -0.093966  0.070475      2.000000
 -0.093966 -0.093966  0.070475      2.000000
 -0.070475 -0.093966  0.070475      2.000000
 -0.046983 -0.093966  0.070475      2.000000
 -0.023492 -0.093966  0.070475      2.000000
  0.000000 -0.070475  0.070475      2.000000
  0.023492 -0.070475  0.070475      2.000000
  0.046983 -0.070475  0.070475      2.000000
  0.070475 -0.070475  0.070475      2.000000
  0.093966 -0.070475  0.070475      2.000000
  0.117458 -0.070475  0.070475      2.000000
 -0.117458 -0.070475  0.070475      2.000000
 -0.093966 -0.070475  0.070475      2.000000
 -0.070475 -0.070475  0.070475      2.000000
 -0.046983 -0.070475  0.070475      2.000000
 -0.023492 -0.070475  0.070475      2.000000
  0.000000 -0.046983  0.070475      2.000000
  0.023492 -0.046983  0.070475      2.000000
  0.046983 -0.046983  0.070475      2.000000
  0.070475 -0.046983  0.070475      2.000000
  0.093966 -0.046983  0.070475      2.000000
  0.117458 -0.046983  0.070475      2.000000
 -0.117458 -0.046983  0.070475      2.000000
 -0.093966 -0.046983  0.070475      2.000000
 -0.070475 -0.046983  0.070475      2.000000
 -0.046983 -0.046983  0.070475      2.000000
 -0.023492 -0.046983  0.070475      2.000000
  0.000000 -0.023492  0.070475      2.000000
  0.023492 -0.023492  0.070475      2.000000
  0.046983 -0.023492  0.070475      2.000000
  0.070475 -0.023492  0.070475      2.000000
  0.093966 -0.023492  0.070475      2.000000
  0.117458 -0.023492  0.070475      2.000000
 -0.117458 -0.023492  0.070475      2.000000
 -0.093966 -0.023492  0.070475      2.000000
 -0.070475 -0.023492  0.070475      2.000000
 -0.046983 -0.023492  0.070475      2.000000
 -0.023492 -0.023492  0.070475      2.000000
  0.000000  0.000000  0.093966      2.000000
  0.023492  0.000000  0.093966      2.000000
  0.046983  0.000000  0.093966      2.000000
  0.070475  0.000000  0.093966      2.000000
  0.093966  0.000000  0.093966      2.000000
  0.117458  0.000000  0.093966      2.000000
 -0.117458  0.000000  0.093966      2.000000
 -0.093966  0.000000  0.093966      2.000000
 -0.070475  0.000000  0.093966      2.000000
 -0.046983  0.000000  0.093966      2.000000
 -0.023492  0.000000  0.093966      2.000000
  0.000000  0.023492  0.093966      2.000000
  0.023492  0.023492  0.093966      2.000000
  0.046983  0.023492  0.093966      2.000000
  0.070475  0.023492  0.093966      2.000000
  0.093966  0.023492  0.093966      2.000000
  0.117458  0.023492  0.093966      2.000000
 -0.117458  0.023492  0.093966      2.000000
 -0.093966  0.023492  0.093966      2.000000
 -0.070475  0.023492  0.093966      2.000000
 -0.046983  0.023492  0.093966      2.000000
 -0.023492  0.023492  0.093966      2.000000
  0.000000  0.046983  0.093966      2.000000
  0.023492  0.046983  0.093966      2.000000
  0.046983  0.046983  0.093966      2.000000
  0.070475  0.046983  0.093966      2.000000
  0.093966  0.046983  0.093966      2.000000
  0.117458  0.046983  0.093966      2.000000
 -0.117458  0.046983  0.093966      2.000000
 -0.093966  0.046983  0.093966      2.000000
 -0.070475  0.046983  0.093966      2.000000
 -0.046983  0.046983  0.093966      2.000000
 -0.023492  0.046983  0.093966      2.000000
  0.000000  0.070475  0.093966      2.000000
  0.023492  0.070475  0.093966      2.000000
  0.046983  0.070475  0.093966      2.000000
  0.070475  0.070475  0.093966      2.000000
  0.093966  0.070475  0.093966      2.000000
  0.117458  0.070475  0.093966      2.000000
 -0.117458  0.070475  0.093966      2.000000
 -0.093966  0.070475  0.093966      2.000000
 -0.070475  0.070475  0.093966      2.000000
 -0.046983  0.070475  0.093966      2.000000
 -0.023492  0.070475  0.093966      2.000000
  0.000000  0.093966  0.093966      2.000000
  0.023492  0.093966  0.093966      2.000000
  0.046983  0.093966  0.093966      2.000000
  0.070475  0.093966  0.093966      2.000000
  0.093966  0.093966  0.093966      2.000000
  0.117458  0.093966  0.093966      2.000000
 -0.117458  0.093966  0.093966      2.000000
 -0.093966  0.093966  0.093966      2.000000
 -0.070475  0.093966  0.093966      2.000000
 -0.046983  0.093966  0.093966      2.000000
 -0.023492  0.093966  0.093966      2.000000
  0.000000  0.117458  0.093966      2.000000
  0.023492  0.117458  0.093966      2.000000
  0.046983  0.117458  0.093966      2.000000
  0.070475  0.117458  0.093966      2.000000
  0.093966  0.117458  0.093966      2.000000
  0.117458  0.117458  0.093966      2.000000
 -0.117458  0.117458  0.093966      2.000000
 -0.093966  0.117458  0.093966      2.000000
 -0.070475  0.117458  0.093966      2.000000
 -0.046983  0.117458  0.093966      2.000000
 -0.023492  0.117458  0.093966      2.000000
  0.000000 -0.117458  0.093966      2.000000
  0.023492 -0.117458  0.093966      2.000000
  0.046983 -0.117458  0.093966      2.000000
  0.070475 -0.117458  0.093966      2.000000
  0.093966 -0.117458  0.093966      2.000000
  0.117458 -0.117458  0.093966      2.000000
 -0.117458 -0.117458  0.093966      2.000000
 -0.093966 -0.117458  0.093966      2.000000
 -0.070475 -0.117458  0.093966      2.000000
 -0.046983 -0.117458  0.093966      2.000000
 -0.023492 -0.117458  0.093966      2.000000
  0.000000 -0.093966  0.093966      2.000000
  0.023492 -0.093966  0.093966      2.000000
  0.046983 -0.093966  0.093966      2.000000
  0.070475 -0.093966  0.093966      2.000000
  0.093966 -0.093966  0.093966      2.000000
  0.117458 -0.093966  0.093966      2.000000
 -0.117458 -0.093966  0.093966      2.000000
 -0.093966 -0.093966  0.093966      2.000000
 -0.070475 -0.093966  0.093966      2.000000
 -0.046983 -0.093966  0.093966      2.000000
 -0.023492 -0.093966  0.093966      2.000000
  0.000000 -0.070475  0.093966      2.000000
  0.023492 -0.070475  0.093966      2.000000
  0.046983 -0.070475  0.093966      2.000000
  0.070475 -0.070475  0.093966      2.000000
  0.093966 -0.070475  0.093966      2.000000
  0.117458 -0.070475  0.093966      2.000000
 -0.117458 -0.070475  0.093966      2.000000
 -0.093966 -0.070475  0.093966      2.000000
 -0.070475 -0.070475  0.093966      2.000000
 -0.046983 -0.070475  0.093966      2.000000
 -0.023492 -0.070475  0.093966      2.000000
  0.000000 -0.046983  0.093966      2.000000
  0.023492 -0.046983  0.093966      2.000000
  0.046983 -0.046983  0.093966      2.000000
  0.070475 -0.046983  0.093966      2.000000
  0.093966 -0.046983  0.093966      2.000000
  0.117458 -0.046983  0.093966      2.000000
 -0.117458 -0.046983  0.093966      2.000000
 -0.093966 -0.046983  0.093966      2.000000
 -0.070475 -0.046983  0.093966      2.000000
 -0.046983 -0.046983  0.093966      2.000000
 -0.023492 -0.046983  0.093966      2.000000
  0.000000 -0.023492  0.093966      2.000000
  0.023492 -0.023492  0.093966      2.000000
  0.046983 -0.023492  0.093966      2.000000
  0.070475 -0.023492  0.093966      2.000000
  0.093966 -0.023492  0.093966      2.000000
  0.117458 -0.023492  0.093966      2.000000
 -0.117458 -0.023492  0.093966      2.000000
 -0.093966 -0.023492  0.093966      2.000000
 -0.070475 -0.023492  0.093966      2.000000
 -0.046983 -0.023492  0.093966      2.000000
 -0.023492 -0.023492  0.093966      2.000000
  0.000000  0.000000  0.117458      2.000000
  0.023492  0.000000  0.117458      2.000000
  0.046983  0.000000  0.117458      2.000000
  0.070475  0.000000  0.117458      2.000000
  0.093966  0.000000  0.117458      2.000000
  0.117458  0.000000  0.117458      2.000000
 -0.117458  0.000000  0.117458      2.000000
 -0.093966  0.000000  0.117458      2.000000
 -0.070475  0.000000  0.117458      2.000000
 -0.046983  0.000000  0.117458      2.000000
 -0.023492  0.000000  0.117458      2.000000
  0.000000  0.023492  0.117458      2.000000
  0.023492  0.023492  0.117458      2.000000
  0.046983  0.023492  0.117458      2.000000
  0.070475  0.023492  0.117458      2.000000
  0.093966  0.023492  0.117458      2.000000
  0.117458  0.023492  0.117458      2.000000
 -0.117458  0.023492  0.117458      2.000000
 -0.093966  0.023492  0.117458      2.000000
 -0.070475  0.023492  0.117458      2.000000
 -0.046983  0.023492  0.117458      2.000000
 -0.023492  0.023492  0.117458      2.000000
  0.000000  0.046983  0.117458      2.000000
  0.023492  0.046983  0.117458      2.000000
  0.046983  0.046983  0.117458      2.000000
  0.070475  0.046983  0.117458      2.000000
  0.093966  0.046983  0.117458      2.000000
  0.117458  0.046983  0.117458      2.000000
 -0.117458  0.046983  0.117458      2.000000
 -0.093966  0.046983  0.117458      2.000000
 -0.070475  0.046983  0.117458      2.000000
 -0.046983  0.046983  0.117458      2.000000
 -0.023492  0.046983  0.117458      2.000000
  0.000000  0.070475  0.117458      2.000000
  0.023492  0.070475  0.117458      2.000000
  0.046983  0.070475  0.117458      2.000000
  0.070475  0.070475  0.117458      2.000000
  0.093966  0.070475  0.117458      2.000000
  0.117458  0.070475  0.117458      2.000000
 -0.117458  0.070475  0.117458      2.000000
 -0.093966  0.070475  0.117458      2.000000
 -0.070475  0.070475  0.117458      2.000000
 -0.046983  0.070475  0.117458      2.000000
 -0.023492  0.070475  0.117458      2.000000
  0.000000  0.093966  0.117458      2.000000
  0.023492  0.093966  0.117458      2.000000
  0.046983  0.093966  0.117458      2.000000
  0.070475  0.093966  0.117458      2.000000
  0.093966  0.093966  0.117458      2.000000
  0.117458  0.093966  0.117458      2.000000
 -0.117458  0.093966  0.117458      2.000000
 -0.093966  0.093966  0.117458      2.000000
 -0.070475  0.093966  0.117458      2.000000
 -0.046983  0.093966  0.117458      2.000000
 -0.023492  0.093966  0.117458      2.000000
  0.000000  0.117458  0.117458      2.000000
  0.023492  0.117458  0.117458      2.000000
  0.046983  0.117458  0.117458      2.000000
  0.070475  0.117458  0.117458      2.000000
  0.093966  0.117458  0.117458      2.000000
  0.117458  0.117458  0.117458      2.000000
 -0.117458  0.117458  0.117458      2.000000
 -0.093966  0.117458  0.117458      2.000000
 -0.070475  0.117458  0.117458      2.000000
 -0.046983  0.117458  0.117458      2.000000
 -0.023492  0.117458  0.117458      2.000000
  0.000000 -0.117458  0.117458      2.000000
  0.023492 -0.117458  0.117458      2.000000
  0.046983 -0.117458  0.117458      2.000000
  0.070475 -0.117458  0.117458      2.000000
  0.093966 -0.117458  0.117458      2.000000
  0.117458 -0.117458  0.117458      2.000000
 -0.117458 -0.117458  0.117458      2.000000
 -0.093966 -0.117458  0.117458      2.000000
 -0.070475 -0.117458  0.117458      2.000000
 -0.046983 -0.117458  0.117458      2.000000
 -0.023492 -0.117458  0.117458      2.000000
  0.000000 -0.093966  0.117458      2.000000
  0.023492 -0.093966  0.117458      2.000000
  0.046983 -0.093966  0.117458      2.000000
  0.070475 -0.093966  0.117458      2.000000
  0.093966 -0.093966  0.117458      2.000000
  0.117458 -0.093966  0.117458      2.000000
 -0.117458 -0.093966  0.117458      2.000000
 -0.093966 -0.093966  0.117458      2.000000
 -0.070475 -0.093966  0.117458      2.000000
 -0.046983 -0.093966  0.117458      2.000000
 -0.023492 -0.093966  0.117458      2.000000
  0.000000 -0.070475  0.117458      2.000000
  0.023492 -0.070475  0.117458      2.000000
  0.046983 -0.070475  0.117458      2.000000
  0.070475 -0.070475  0.117458      2.000000
  0.093966 -0.070475  0.117458      2.000000
  0.117458 -0.070475  0.117458      2.000000
 -0.117458 -0.070475  0.117458      2.000000
 -0.093966 -0.070475  0.117458      2.000000
 -0.070475 -0.070475  0.117458      2.000000
 -0.046983 -0.070475  0.117458      2.000000
 -0.023492 -0.070475  0.117458      2.000000
  0.000000 -0.046983  0.117458      2.000000
  0.023492 -0.046983  0.117458      2.000000
  0.046983 -0.046983  0.117458      2.000000
  0.070475 -0.046983  0.117458      2.000000
  0.093966 -0.046983  0.117458      2.000000
  0.117458 -0.046983  0.117458      2.000000
 -0.117458 -0.046983  0.117458      2.000000
 -0.093966 -0.046983  0.117458      2.000000
 -0.070475 -0.046983  0.117458      2.000000
 -0.046983 -0.046983  0.117458      2.000000
 -0.023492 -0.046983  0.117458      2.000000
  0.000000 -0.023492  0.117458      2.000000
  0.023492 -0.023492  0.117458      2.000000
  0.046983 -0.023492  0.117458      2.000000
  0.070475 -0.023492  0.117458      2.000000
  0.093966 -0.023492  0.117458      2.000000
  0.117458 -0.023492  0.117458      2.000000
 -0.117458 -0.023492  0.117458      2.000000
 -0.093966 -0.023492  0.117458      2.000000
 -0.070475 -0.023492  0.117458      2.000000
 -0.046983 -0.023492  0.117458      2.000000
 -0.023492 -0.023492  0.117458      2.000000
 


--------------------------------------------------------------------------------------------------------




 Dimension of arrays:
   k-points           NKPTS =    666   k-points in BZ     NKDIM =    666   number of bands    NBANDS=     29
   number of dos      NEDOS =    301   number of ions     NIONS =      4
   non local maximal  LDIM  =      6   non local SUM 2l+1 LMDIM =     18
   total plane-waves  NPLWV =  21952
   max r-space proj   IRMAX =      1   max aug-charges    IRDMAX=  16239
   dimension x,y,z NGX =    28 NGY =   28 NGZ =   28
   dimension x,y,z NGXF=    56 NGYF=   56 NGZF=   56
   support grid    NGXF=    56 NGYF=   56 NGZF=   56
   ions per type =               1   3
 NGX,Y,Z   is equivalent  to a cutoff of  12.03, 12.03, 12.03 a.u.
 NGXF,Y,Z  is equivalent  to a cutoff of  24.06, 24.06, 24.06 a.u.


 I would recommend the setting:
   dimension x,y,z NGX =    25 NGY =   25 NGZ =   25
 SYSTEM =  bcc Al                                  
 POSCAR =  MLIP output to VASP                     

 Startparameter for this run:
   NWRITE =      2    write-flag & timer
   PREC   = a         normal or accurate (medium, high low for compatibility)
   ISTART =      1    job   : 0-new  1-cont  2-samecut
   ICHARG =      1    charge: 1-file 2-atom 10-const
   ISPIN  =      2    spin polarized calculation?
   LNONCOLLINEAR =      F non collinear calculations
   LSORBIT =      F    spin-orbit coupling
   INIWAV =      1    electr: 0-lowe 1-rand  2-diag
   LASPH  =      F    aspherical Exc in radial PAW
   METAGGA=      F    non-selfconsistent MetaGGA calc.

 Electronic Relaxation 1
   ENCUT  =  400.0 eV  29.40 Ry    5.42 a.u.   6.31  6.31  6.31*2*pi/ulx,y,z
   ENINI  =  400.0     initial cutoff
   ENAUG  =  477.8 eV  augmentation charge cutoff
   NELM   =     16;   NELMIN=  2; NELMDL=  0     # of ELM steps 
   EDIFF  = 0.1E-07   stopping-criterion for ELM
   LREAL  =      F    real-space projection
   NLSPLINE    = F    spline interpolate recip. space projectors
   LCOMPAT=      F    compatible to vasp.4.4
   GGA_COMPAT  = T    GGA compatible to vasp.4.4-vasp.4.6
   LMAXPAW     = -100 max onsite density
   LMAXMIX     =    2 max onsite mixed and CHGCAR
   VOSKOWN=      0    Vosko Wilk Nusair interpolation
   ROPT   =    0.00000   0.00000
 Ionic relaxation
   EDIFFG = 0.1E-06   stopping-criterion for IOM
   NSW    =      0    number of steps for IOM
   NBLOCK =      1;   KBLOCK =      1    inner block; outer block 
   IBRION =     -1    ionic relax: 0-MD 1-quasi-New 2-CG
   NFREE  =      0    steps in history (QN), initial steepest desc. (CG)
   ISIF   =      2    stress and relaxation
   IWAVPR =     10    prediction:  0-non 1-charg 2-wave 3-comb
   ISYM   =      0    0-nonsym 1-usesym 2-fastsym
   LCORR  =      T    Harris-Foulkes like correction to forces

   POTIM  = 0.5000    time-step for ionic-motion
   TEIN   =    0.0    initial temperature
   TEBEG  =    0.0;   TEEND  =   0.0 temperature during run
   SMASS  =  -3.00    Nose mass-parameter (am)
   estimated Nose-frequenzy (Omega)   =  0.10E-29 period in steps =****** mass=  -0.342E-27a.u.
   SCALEE = 1.0000    scale energy and forces
   NPACO  =    256;   APACO  = 16.0  distance and # of slots for P.C.
   PSTRESS=    0.0 pullay stress

  Mass of Ions in am
   POMASS =  58.93 92.91
  Ionic Valenz
   ZVAL   =   9.00 13.00
  Atomic Wigner-Seitz radii
   RWIGS  =  -1.00 -1.00
  virtual crystal weights 
   VCA    =   1.00  1.00
   NELECT =      48.0000    total number of electrons
   NUPDOWN=      -1.0000    fix difference up-down

 DOS related values:
   EMIN   =  10.00;   EMAX   =-10.00  energy-range for DOS
   EFERMI =   0.00
   ISMEAR =     0;   SIGMA  =   0.10  broadening in eV -4-tet -1-fermi 0-gaus

 Electronic relaxation 2 (details)
   IALGO  =     38    algorithm
   LDIAG  =      T    sub-space diagonalisation (order eigenvalues)
   LSUBROT=      F    optimize rotation matrix (better conditioning)
   TURBO    =      0    0=normal 1=particle mesh
   IRESTART =      0    0=no restart 2=restart with 2 vectors
   NREBOOT  =      0    no. of reboots
   NMIN     =      0    reboot dimension
   EREF     =   0.00    reference energy to select bands
   IMIX   =      4    mixing-type and parameters
     AMIX     =   0.40;   BMIX     =  1.00
     AMIX_MAG =   1.60;   BMIX_MAG =  1.00
     AMIN     =   0.10
     WC   =   100.;   INIMIX=   1;  MIXPRE=   1;  MAXMIX= -45

 Intra band minimization:
   WEIMIN = 0.0000     energy-eigenvalue tresh-hold
   EBREAK =  0.86E-10  absolut break condition
   DEPER  =   0.30     relativ break condition  

   TIME   =   0.40     timestep for ELM

  volume/ion in A,a.u.               =      14.49        97.77
  Fermi-wavevector in a.u.,A,eV,Ry     =   1.537423  2.905308 32.159668  2.363669
  Thomas-Fermi vector in A             =   2.643934
 
 Write flags
   LWAVE  =      F    write WAVECAR
   LCHARG =      F    write CHGCAR
   LVTOT  =      F    write LOCPOT, total local potential
   LVHAR  =      F    write LOCPOT, Hartree potential only
   LELF   =      F    write electronic localiz. function (ELF)
   LORBIT =      0    0 simple, 1 ext, 2 COOP (PROOUT)


 Dipole corrections
   LMONO  =      F    monopole corrections only (constant potential shift)
   LDIPOL =      F    correct potential (dipole corrections)
   IDIPOL =      0    1-x, 2-y, 3-z, 4-all directions 
   EPSILON=  1.0000000 bulk dielectric constant

 Exchange correlation treatment:
   GGA     =    --    GGA type
   LEXCH   =     8    internal setting for exchange type
   VOSKOWN=      0    Vosko Wilk Nusair interpolation
   LHFCALC =     F    Hartree Fock is set to
   LHFONE  =     F    Hartree Fock one center treatment
   AEXX    =    0.0000 exact exchange contribution

 Linear response parameters
   LEPSILON=     F    determine dielectric tensor
   LRPA    =     F    only Hartree local field effects (RPA)
   LNABLA  =     F    use nabla operator in PAW spheres
   LVEL    =     F    velocity operator in full k-point grid
   LINTERFAST=   F  fast interpolation
   KINTER  =     0    interpolate to denser k-point grid
   CSHIFT  =0.1000    complex shift for real part using Kramers Kronig
   OMEGAMAX=  -1.0    maximum frequency
   DEG_THRESHOLD= 0.2000000E-02 threshold for treating states as degnerate
   RTIME   =    0.100 relaxation time in fs

 Orbital magnetization related:
   ORBITALMAG=     F  switch on orbital magnetization
   LCHIMAG   =     F  perturbation theory with respect to B field
   DQ        =  0.001000  dq finite difference perturbation B field



--------------------------------------------------------------------------------------------------------


 Static calculation
 charge density and potential will be updated during run
 spin polarized calculation
 Variant of blocked Davidson
 Davidson routine will perform the subspace rotation
 perform sub-space diagonalisation
    after iterative eigenvector-optimisation
[...]
     29      14.9671     -0.00000

 k-point   661 :       0.4545   -0.0909    0.4545
  band No.  band energies     occupation 
      1     -41.4633      1.00000
      2     -41.4231      1.00000
      3     -41.3950      1.00000
      4     -18.5636      1.00000
      5     -18.3455      1.00000
      6     -17.8195      1.00000
      7     -17.8144      1.00000
      8     -17.6256      1.00000
      9     -17.3956      1.00000
     10     -17.3504      1.00000
     11     -16.9414      1.00000
     12     -16.8540      1.00000
     13       9.0693      1.00000
     14       9.8927      1.00000
     15      10.0344      1.00000
     16      10.4577      1.00000
     17      10.9823      1.00000
     18      11.0929      1.00000
     19      11.1679      1.00000
     20      11.3308      1.00000
     21      11.4301      1.00000
     22      11.5014      1.00000
     23      11.6673      1.00000
     24      11.9717      1.00000
     25      12.1394      1.00000
     26      13.4797     -0.00000
     27      13.6441     -0.00000
     28      14.4185     -0.00000
     29      14.8989     -0.00000

 k-point   662 :      -0.4545   -0.0909    0.4545
  band No.  band energies     occupation 
      1     -41.4633      1.00000
      2     -41.4231      1.00000
      3     -41.3950      1.00000
      4     -18.5636      1.00000
      5     -18.3455      1.00000
      6     -17.8195      1.00000
      7     -17.8144      1.00000
      8     -17.6256      1.00000
      9     -17.3956      1.00000
     10     -17.3504      1.00000
     11     -16.9414      1.00000
     12     -16.8540      1.00000
     13       9.0693      1.00000
     14       9.8927      1.00000
     15      10.0344      1.00000
     16      10.4577      1.00000
     17      10.9823      1.00000
     18      11.0929      1.00000
     19      11.1679      1.00000
     20      11.3308      1.00000
     21      11.4301      1.00000
     22      11.5014      1.00000
     23      11.6673      1.00000
     24      11.9717      1.00000
     25      12.1394      1.00000
     26      13.4797     -0.00000
     27      13.6441     -0.00000
     28      14.4185     -0.00000
     29      14.8996     -0.00000

 k-point   663 :      -0.3636   -0.0909    0.4545
  band No.  band energies     occupation 
      1     -41.5055      1.00000
      2     -41.4209      1.00000
      3     -41.3557      1.00000
      4     -18.5411      1.00000
      5     -18.2847      1.00000
      6     -17.8539      1.00000
      7     -17.8156      1.00000
      8     -17.6674      1.00000
      9     -17.4029      1.00000
     10     -17.2662      1.00000
     11     -16.9675      1.00000
     12     -16.8993      1.00000
     13       8.9960      1.00000
     14       9.6662      1.00000
     15      10.0490      1.00000
     16      10.4337      1.00000
     17      10.6435      1.00000
     18      10.8763      1.00000
     19      10.9618      1.00000
     20      11.2300      1.00000
     21      11.4689      1.00000
     22      11.5688      1.00000
     23      11.7809      1.00000
     24      12.0384      1.00000
     25      12.2959      1.00000
     26      13.3568     -0.00000
     27      13.7591     -0.00000
     28      14.7949     -0.00000
     29      14.9668     -0.00000

 k-point   664 :      -0.2727   -0.0909    0.4545
  band No.  band energies     occupation 
      1     -41.5455      1.00000
      2     -41.4215      1.00000
      3     -41.3164      1.00000
      4     -18.4934      1.00000
      5     -18.1750      1.00000
      6     -17.9319      1.00000
      7     -17.8156      1.00000
      8     -17.6867      1.00000
      9     -17.4036      1.00000
     10     -17.1777      1.00000
     11     -17.0387      1.00000
     12     -16.9563      1.00000
     13       8.8225      1.00000
     14       9.3718      1.00000
     15       9.8795      1.00000
     16      10.2321      1.00000
     17      10.4494      1.00000
     18      10.7145      1.00000
     19      10.8177      1.00000
     20      11.0374      1.00000
     21      11.4386      1.00000
     22      11.6790      1.00000
     23      11.7480      1.00000
     24      12.2380      1.00000
     25      12.7307      0.96849
     26      13.3121     -0.00000
     27      13.8206     -0.00000
     28      15.0089     -0.00000
     29      15.3869     -0.00000

 k-point   665 :      -0.1818   -0.0909    0.4545
  band No.  band energies     occupation 
      1     -41.5770      1.00000
      2     -41.4224      1.00000
      3     -41.2852      1.00000
      4     -18.4220      1.00000
      5     -18.0565      1.00000
      6     -18.0096      1.00000
      7     -17.8046      1.00000
      8     -17.6951      1.00000
      9     -17.4054      1.00000
     10     -17.1751      1.00000
     11     -17.1008      1.00000
     12     -16.9884      1.00000
     13       8.5952      1.00000
     14       9.0828      1.00000
     15       9.4909      1.00000
     16      10.2494      1.00000
     17      10.2990      1.00000
     18      10.5147      1.00000
     19      10.8077      1.00000
     20      10.8645      1.00000
     21      11.4267      1.00000
     22      11.6389      1.00000
     23      11.8606      1.00000
     24      12.6485      1.02551
     25      13.2081     -0.00000
     26      13.3573     -0.00000
     27      13.8693     -0.00000
     28      15.0398     -0.00000
     29      15.4776     -0.00000

 k-point   666 :      -0.0909   -0.0909    0.4545
  band No.  band energies     occupation 
      1     -41.5972      1.00000
      2     -41.4232      1.00000
      3     -41.2653      1.00000
      4     -18.3342      1.00000
      5     -18.1313      1.00000
      6     -17.9283      1.00000
      7     -17.7399      1.00000
      8     -17.7004      1.00000
      9     -17.4391      1.00000
     10     -17.3052      1.00000
     11     -17.0586      1.00000
     12     -17.0047      1.00000
     13       8.4103      1.00000
     14       8.8780      1.00000
     15       9.2216      1.00000
     16      10.1190      1.00000
     17      10.1712      1.00000
     18      10.5603      1.00000
     19      10.7446      1.00000
     20      10.8812      1.00000
     21      11.4461      1.00000
     22      11.5679      1.00000
     23      11.9274      1.00000
     24      13.0710     -0.00050
     25      13.3820     -0.00000
     26      13.8935     -0.00000
     27      13.9023     -0.00000
     28      14.7063     -0.00000
     29      15.6001      0.00000


--------------------------------------------------------------------------------------------------------


 soft charge-density along one line, spin component           1
         0         1         2         3         4         5         6         7         8         9
 total charge-density along one line
 
 soft charge-density along one line, spin component           2
         0         1         2         3         4         5         6         7         8         9
 total charge-density along one line
 
 pseudopotential strength for first ion, spin component:           1
  2.103  -0.000   0.000   0.000  -0.000   1.367  -0.000   0.000
 -0.000   2.103   0.000  -0.000  -0.000  -0.000   1.367   0.000
  0.000   0.000   2.086  -0.000   0.000   0.000   0.000   1.351
  0.000  -0.000  -0.000   2.103  -0.000   0.000  -0.000  -0.000
 -0.000  -0.000   0.000  -0.000   2.086  -0.000  -0.000   0.000
  1.367  -0.000   0.000   0.000  -0.000   0.693  -0.000   0.000
 -0.000   1.367   0.000  -0.000  -0.000  -0.000   0.693   0.000
  0.000   0.000   1.351  -0.000   0.000   0.000   0.000   0.678
  0.000  -0.000  -0.000   1.367  -0.000   0.000  -0.000  -0.000
 -0.000  -0.000   0.000  -0.000   1.351  -0.000  -0.000   0.000
 -0.000  -0.000  -0.000   0.000   0.000  -0.000  -0.000  -0.000
 -0.000  -0.000  -0.000   0.000   0.000  -0.000  -0.000  -0.000
  0.000   0.000   0.000  -0.000   0.000   0.000   0.000   0.000
 -0.000  -0.000   0.000   0.000   0.000  -0.000  -0.000   0.000
 -0.000  -0.000  -0.000   0.000   0.000  -0.000  -0.000  -0.000
  0.000   0.000   0.000  -0.000   0.000   0.000   0.000   0.000
 -0.000  -0.000   0.000   0.000   0.000  -0.000  -0.000   0.000
 -0.000  -0.000  -0.000   0.000   0.000  -0.000  -0.000  -0.000
 pseudopotential strength for first ion, spin component:           2
  2.103  -0.000   0.000   0.000   0.000   1.367  -0.000   0.000
 -0.000   2.103  -0.000  -0.000   0.000  -0.000   1.367  -0.000
  0.000  -0.000   2.086   0.000   0.000   0.000  -0.000   1.351
  0.000  -0.000   0.000   2.103   0.000   0.000  -0.000   0.000
  0.000   0.000   0.000   0.000   2.086   0.000   0.000   0.000
  1.367  -0.000   0.000   0.000   0.000   0.693  -0.000   0.000
 -0.000   1.367  -0.000  -0.000   0.000  -0.000   0.693  -0.000
  0.000  -0.000   1.351   0.000   0.000   0.000  -0.000   0.678
  0.000  -0.000   0.000   1.367   0.000   0.000  -0.000   0.000
  0.000   0.000   0.000   0.000   1.351   0.000   0.000   0.000
  0.000   0.000  -0.000  -0.000   0.000   0.000   0.000  -0.000
  0.000   0.000  -0.000  -0.000   0.000   0.000   0.000  -0.000
  0.000   0.000  -0.000   0.000   0.000   0.000   0.000  -0.000
  0.000  -0.000   0.000   0.000   0.000   0.000  -0.000   0.000
  0.000   0.000  -0.000   0.000   0.000   0.000   0.000  -0.000
  0.000   0.000  -0.000   0.000   0.000   0.000   0.000  -0.000
  0.000  -0.000   0.000   0.000  -0.000   0.000  -0.000   0.000
  0.000   0.000  -0.000   0.000   0.000   0.000   0.000  -0.000
 total augmentation occupancy for first ion, spin component:           1
  1.642   0.000  -0.000   0.000   0.000  -0.538  -0.000   0.000  -0.000   0.000   0.000  -0.000  -0.000   0.000  -0.000   0.000
  0.000   1.642   0.000   0.000  -0.000  -0.000  -0.538  -0.000  -0.000   0.000   0.000  -0.000  -0.000  -0.000   0.000   0.000
 -0.000   0.000   1.799   0.000  -0.000   0.000  -0.000  -0.687  -0.000  -0.000  -0.000  -0.000   0.000  -0.000   0.000  -0.000
  0.000   0.000   0.000   1.642   0.000   0.000  -0.000  -0.000  -0.538   0.000  -0.000   0.000   0.000  -0.000   0.000   0.000
  0.000  -0.000  -0.000   0.000   1.799  -0.000  -0.000  -0.000  -0.000  -0.687   0.000  -0.000   0.000   0.000  -0.000   0.000
 -0.538  -0.000   0.000   0.000  -0.000   1.049   0.000  -0.000  -0.000  -0.000  -0.000   0.000   0.000  -0.000   0.000  -0.000
 -0.000  -0.538  -0.000  -0.000  -0.000   0.000   1.049   0.000  -0.000   0.000  -0.000   0.000  -0.000   0.000   0.000   0.000
  0.000  -0.000  -0.687  -0.000  -0.000  -0.000   0.000   1.082  -0.000   0.000   0.000  -0.000  -0.000   0.000  -0.000  -0.000
 -0.000  -0.000  -0.000  -0.538  -0.000  -0.000  -0.000  -0.000   1.049  -0.000   0.000  -0.000  -0.000   0.000  -0.000   0.000
  0.000   0.000  -0.000   0.000  -0.687  -0.000   0.000   0.000  -0.000   1.082  -0.000  -0.000  -0.000  -0.000   0.000  -0.000
  0.000   0.000  -0.000  -0.000   0.000  -0.000  -0.000   0.000   0.000  -0.000   2.369  -0.247   0.000   0.000   0.000  -0.000
 -0.000  -0.000  -0.000   0.000  -0.000   0.000   0.000  -0.000  -0.000  -0.000  -0.247   0.035   0.000  -0.000  -0.000   0.000
 -0.000  -0.000   0.000   0.000   0.000   0.000  -0.000  -0.000  -0.000  -0.000   0.000   0.000   0.304   0.000   0.000  -0.026
  0.000  -0.000  -0.000  -0.000   0.000  -0.000   0.000   0.000   0.000  -0.000   0.000  -0.000   0.000   0.304   0.000  -0.000
 -0.000   0.000   0.000   0.000  -0.000   0.000   0.000  -0.000  -0.000   0.000   0.000  -0.000   0.000   0.000   0.304  -0.000
  0.000   0.000  -0.000   0.000   0.000  -0.000   0.000  -0.000   0.000  -0.000  -0.000   0.000  -0.026  -0.000  -0.000   0.003
  0.000   0.000  -0.000   0.000   0.000   0.000  -0.000   0.000  -0.000  -0.000   0.000   0.000  -0.000  -0.026  -0.000   0.000
  0.000   0.000  -0.000  -0.000   0.000  -0.000  -0.000  -0.000   0.000  -0.000  -0.000   0.000   0.000  -0.000  -0.026   0.000
 total augmentation occupancy for first ion, spin component:           2
  0.000   0.000   0.000   0.000   0.000  -0.000   0.000  -0.000  -0.000  -0.000  -0.000   0.000  -0.000   0.000   0.000  -0.000
  0.000   0.000  -0.000   0.000   0.000  -0.000  -0.000  -0.000  -0.000  -0.000  -0.000   0.000   0.000  -0.000   0.000   0.000
  0.000  -0.000   0.000   0.000  -0.000  -0.000  -0.000  -0.000  -0.000   0.000   0.000   0.000   0.000  -0.000  -0.000   0.000
  0.000   0.000   0.000   0.000  -0.000  -0.000  -0.000  -0.000  -0.000   0.000   0.000  -0.000   0.000  -0.000   0.000  -0.000
  0.000   0.000  -0.000  -0.000   0.000  -0.000  -0.000  -0.000   0.000  -0.000   0.000  -0.000   0.000   0.000  -0.000   0.000
 -0.000  -0.000  -0.000  -0.000  -0.000  -0.000  -0.000   0.000   0.000   0.000  -0.000   0.000   0.000  -0.000  -0.000  -0.000
  0.000  -0.000  -0.000  -0.000  -0.000  -0.000  -0.000   0.000   0.000  -0.000  -0.000   0.000  -0.000   0.000  -0.000   0.000
 -0.000  -0.000  -0.000  -0.000  -0.000   0.000   0.000  -0.000   0.000   0.000  -0.000  -0.000  -0.000   0.000  -0.000  -0.000
 -0.000  -0.000  -0.000  -0.000   0.000   0.000   0.000   0.000  -0.000  -0.000   0.000  -0.000  -0.000   0.000  -0.000   0.000
 -0.000  -0.000   0.000   0.000  -0.000   0.000  -0.000   0.000  -0.000  -0.000  -0.000   0.000  -0.000  -0.000   0.000  -0.000
 -0.000  -0.000   0.000   0.000   0.000  -0.000  -0.000  -0.000   0.000  -0.000  -0.000   0.000  -0.000   0.000   0.000  -0.000
  0.000   0.000   0.000  -0.000  -0.000   0.000   0.000  -0.000  -0.000   0.000   0.000  -0.000   0.000  -0.000  -0.000  -0.000
 -0.000   0.000   0.000   0.000   0.000   0.000  -0.000  -0.000  -0.000  -0.000  -0.000   0.000   0.000   0.000   0.000   0.000
  0.000  -0.000  -0.000  -0.000   0.000  -0.000   0.000   0.000   0.000  -0.000   0.000  -0.000   0.000   0.000  -0.000  -0.000
  0.000   0.000  -0.000   0.000  -0.000  -0.000  -0.000  -0.000  -0.000   0.000   0.000  -0.000   0.000  -0.000   0.000  -0.000
 -0.000   0.000   0.000  -0.000   0.000  -0.000   0.000  -0.000   0.000  -0.000  -0.000  -0.000   0.000  -0.000  -0.000  -0.000
  0.000   0.000   0.000   0.000  -0.000  -0.000   0.000  -0.000  -0.000   0.000  -0.000   0.000  -0.000   0.000  -0.000   0.000
  0.000  -0.000   0.000  -0.000   0.000  -0.000  -0.000  -0.000  -0.000  -0.000  -0.000  -0.000  -0.000   0.000   0.000   0.000


------------------------ aborting loop because EDIFF is reached ----------------------------------------


    CHARGE:  cpu time    1.6919: real time    1.6910
    FORLOC:  cpu time    0.0007: real time    0.0007
    FORNL :  cpu time    3.1887: real time    3.1870
    STRESS:  cpu time    5.0357: real time    5.0330
    FORCOR:  cpu time    0.0172: real time    0.0174
    FORHAR:  cpu time    0.0021: real time    0.0021
    MIXING:  cpu time    0.0011: real time    0.0011
    OFIELD:  cpu time    0.0000: real time    0.0000

  FORCE on cell =-STRESS in cart. coord.  units (eV):
  Direction    XX          YY          ZZ          XY          YZ          ZX
  --------------------------------------------------------------------------------------
  Alpha Z   323.87233   323.87233   323.87233
  Ewald   -1654.57124 -1654.57124 -1654.57124    -0.00000    -0.00000     0.00000
  Hartree   256.26910   256.26910   256.26912     0.00000     0.00000    -0.00000
  E(xc)    -225.88732  -225.88732  -225.88732    -0.00000    -0.00000    -0.00000
  Local     294.35191   294.35190   294.35188    -0.00000    -0.00000     0.00000
  n-local   -48.70129   -48.70129   -48.70129     0.00000    -0.00000     0.00000
  augment   206.39177   206.39177   206.39177     0.00000    -0.00000    -0.00000
  Kinetic   857.71977   857.71977   857.71977    -0.00000     0.00000    -0.00000
  Fock        0.00000     0.00000     0.00000     0.00000     0.00000     0.00000
  -------------------------------------------------------------------------------------
  Total       9.44503     9.44503     9.44502    -0.00000     0.00000     0.00000
  in kB     261.11291   261.11281   261.11259    -0.00002     0.00000     0.00000
  external pressure =      261.11 kB  Pullay stress =        0.00 kB


 VOLUME and BASIS-vectors are now :
 -----------------------------------------------------------------------------
  energy-cutoff  :      400.00
  volume of cell :       57.95
      direct lattice vectors                 reciprocal lattice vectors
     3.869860000  0.000000000  0.000000000     0.258407281  0.000000000  0.000000000
     0.000000000  3.869860000  0.000000000     0.000000000  0.258407281  0.000000000
     0.000000000  0.000000000  3.869860000     0.000000000  0.000000000  0.258407281

  length of vectors
     3.869860000  3.869860000  3.869860000     0.258407281  0.258407281  0.258407281


 FORCES acting on ions
    electron-ion (+dipol)            ewald-force                    non-local-force                 convergence-correction
 -----------------------------------------------------------------------------------------------
   0.139E-06 0.231E-06 0.852E-07   -.110E-13 -.677E-14 -.317E-14   0.109E-06 0.146E-07 0.282E-08   -.185E-06 -.305E-06 -.744E-07
   0.314E-06 -.581E-07 0.121E-06   -.295E-14 0.677E-14 0.553E-14   0.907E-07 -.148E-06 -.582E-07   -.345E-06 0.201E-06 -.540E-07
   -.354E-06 -.348E-06 0.257E-06   0.214E-14 0.724E-14 0.596E-14   -.300E-07 -.780E-07 0.117E-06   0.315E-06 0.306E-06 -.305E-06
   0.452E-06 -.834E-07 0.189E-06   0.112E-13 -.304E-14 -.449E-14   0.202E-06 -.935E-07 0.139E-07   -.471E-06 0.163E-06 -.197E-06
 -----------------------------------------------------------------------------------------------
   0.550E-06 -.259E-06 0.653E-06   -.612E-15 0.420E-14 0.383E-14   0.372E-06 -.305E-06 0.757E-07   -.687E-06 0.366E-06 -.630E-06
 
 
 POSITION                                       TOTAL-FORCE (eV/Angst)
 -----------------------------------------------------------------------------------
      0.00000      0.00000      0.00000         0.000000     -0.000000     -0.000000
      0.00000      1.93493      1.93493         0.000000      0.000000     -0.000000
      1.93493      0.00000      1.93493        -0.000000     -0.000000      0.000000
      1.93493      1.93493      0.00000         0.000000      0.000000     -0.000000
 -----------------------------------------------------------------------------------
    total drift:                                0.000000     -0.000000      0.000000


--------------------------------------------------------------------------------------------------------



  FREE ENERGIE OF THE ION-ELECTRON SYSTEM (eV)
  ---------------------------------------------------
  free  energy   TOTEN  =       -36.31214329 eV

  energy  without entropy=      -36.31455479  energy(sigma->0) =      -36.31294712
 


--------------------------------------------------------------------------------------------------------


    POTLOK:  cpu time    0.0236: real time    0.0235


--------------------------------------------------------------------------------------------------------


     LOOP+:  cpu time  451.7968: real time  453.7113
    4ORBIT:  cpu time    0.0000: real time    0.0000

 total amount of memory used by VASP on root node   100286. kBytes
========================================================================

   base      :      30000. kBytes
   nonl-proj :      13622. kBytes
   fftplans  :        468. kBytes
   grid      :       1159. kBytes
   one-center:         31. kBytes
   wavefun   :      55006. kBytes
 
  
  
 General timing and accounting informations for this job:
 ========================================================
  
                  Total CPU time used (sec):      456.452
                            User time (sec):      453.792
                          System time (sec):        2.660
                         Elapsed time (sec):      460.107
  
                   Maximum memory used (kb):      138912.
                   Average memory used (kb):           0.
  
                          Minor page faults:        73072
                          Major page faults:           11
                 Voluntary context switches:         1093
