 vasp.5.4.1 24Jun15 (build Apr 15 2016 23:17:53) complex                        
  
 executed on           IFC91_ompi date 2016.06.29  20:05:44
 running on   16 total cores
 distrk:  each k-point on   16 cores,    1 groups
 distr:  one band on NCORES_PER_BAND=  16 cores,    1 groups


--------------------------------------------------------------------------------------------------------


 INCAR:
 POTCAR:    PAW_PBE Li 17Jan2003                  

 ----------------------------------------------------------------------------- 
|                                                                             |
|           W    W    AA    RRRRR   N    N  II  N    N   GGGG   !!!           |
|           W    W   A  A   R    R  NN   N  II  NN   N  G    G  !!!           |
|           W    W  A    A  R    R  N N  N  II  N N  N  G       !!!           |
|           W WW W  AAAAAA  RRRRR   N  N N  II  N  N N  G  GGG   !            |
|           WW  WW  A    A  R   R   N   NN  II  N   NN  G    G                |
|           W    W  A    A  R    R  N    N  II  N    N   GGGG   !!!           |
|                                                                             |
|      For optimal performance we recommend to set                            |
|        NCORE= 4 - approx SQRT( number of cores)                             |
|      NCORE specifies how many cores store one orbital (NPAR=cpu/NCORE).     |
|      This setting can  greatly improve the performance of VASP for DFT.     |
|      The default, NPAR=number of cores might be grossly inefficient         |
|      on modern multi-core architectures or massively parallel machines.     |
|      Do your own testing !!!!                                               |
|      Unfortunately you need to use the default for GW and RPA calculations. |
|      (for HF NCORE is supported but not extensively tested yet)             |
|                                                                             |
 ----------------------------------------------------------------------------- 

 POTCAR:    PAW_PBE Li 17Jan2003                  
   VRHFIN =Li: s1p0                                                             
   LEXCH  = PE                                                                  
   EATOM  =     5.3001 eV,    0.3895 Ry                                         
                                                                                
   TITEL  = PAW_PBE Li 17Jan2003                                                
   LULTRA =        F    use ultrasoft PP ?                                      
   IUNSCR =        1    unscreen: 0-lin 1-nonlin 2-no                           
   RPACOR =    1.500    partial core radius                                     
   POMASS =    7.010; ZVAL   =    1.000    mass and valenz                      
   RCORE  =    2.050    outmost cutoff radius                                   
   RWIGS  =    2.600; RWIGS  =    1.376    wigner-seitz radius (au A)           
   ENMAX  =  140.000; ENMIN  =  100.000 eV                                      
   ICORE  =        2    local potential                                         
   LCOR   =        T    correct aug charges                                     
   LPAW   =        T    paw PP                                                  
   EAUG   =  331.638                                                            
   DEXC   =    0.000                                                            
   RMAX   =    2.098    core radius for proj-oper                               
   RAUG   =    1.300    factor for augmentation sphere                          
   RDEP   =    2.094    radius for radial grids                                 
   RDEPT  =    1.810    core radius for aug-charge                              
                                                                                
   Atomic configuration                                                         
    4 entries                                                                   
     n  l   j            E        occ.                                          
     1  0  0.50       -51.8549   2.0000                                         
     2  0  0.50        -2.8742   1.0000                                         
     2  1  0.50        -1.3606   0.0000                                         
     3  2  1.50        -1.3606   0.0000                                         
   Description                                                                  
     l       E           TYP  RCUT    TYP  RCUT                                 
     0     -2.8742052     23  2.050                                             
     0     27.2116520     23  2.050                                             
     1     -1.3605826     23  2.050                                             
     2     -1.3605826     23  2.050                                             
  local pseudopotential read in
  partial core-charges read in
  partial kinetic energy density read in
  atomic valenz-charges read in
  non local Contribution for L=           0  read in
    real space projection operators read in
  non local Contribution for L=           0  read in
    real space projection operators read in
  non local Contribution for L=           1  read in
    real space projection operators read in
    PAW grid and wavefunctions read in
 
   number of l-projection  operators is LMAX  =           3
   number of lm-projection operators is LMMAX =           5
 

 ----------------------------------------------------------------------------- 
|                                                                             |
|  ADVICE TO THIS USER RUNNING 'VASP/VAMP'   (HEAR YOUR MASTER'S VOICE ...):  |
|                                                                             |
|      You have a (more or less) 'large supercell' and for larger cells       |
|      it might be more efficient to use real space projection opertators     |
|      So try LREAL= Auto  in the INCAR   file.                               |
|      Mind: At the moment your POTCAR file does not contain real space       |
|       projectors, and has to be modified,  BUT if you                       |
|      want to do an extremely  accurate calculation you might also keep the  |
|      reciprocal projection scheme          (i.e. LREAL=.FALSE.)             |
|                                                                             |
 ----------------------------------------------------------------------------- 

  PAW_PBE Li 17Jan2003                  :
 energy of atom  1       EATOM=   -5.3001
 kinetic energy error for atom=    0.0000 (will be added to EATOM!!)
 
 
 POSCAR: MLIP output to VASP                     
  positions in cartesian coordinates
  No initial velocities read in
 exchange correlation table for  LEXCH =        8
   RHO(1)=    0.500       N(1)  =     2000
   RHO(2)=  100.500       N(2)  =     4000
 


--------------------------------------------------------------------------------------------------------


 ion  position               nearest neighbor table
   1  0.993  0.992  0.012- 128 2.79  98 2.84  26 2.93  32 3.03   2 3.08 122 3.09   8 3.18 104 3.20
                             9 3.26
   2  0.122  0.136  0.112-   9 2.73  33 2.93  11 2.93  35 3.01   1 3.08  41 3.09  10 3.14
   3  0.987  0.999  0.273- 124 2.83   5 2.95 100 2.95  26 2.97  98 2.98 122 3.00  28 3.01
   4  0.143  0.135  0.386-  35 2.58  37 2.94  12 3.03   5 3.05   6 3.07  45 3.15  28 3.17  13 3.28

   5  0.975  0.036  0.479- 100 2.75 102 2.78   6 2.93   3 2.95   4 3.05 126 3.06  13 3.06 124 3.06

   6  0.119  0.122  0.602-   7 2.87  15 2.93   5 2.93  30 2.95  37 3.06   4 3.07  13 3.09  14 3.20
                            45 3.20  47 3.22
   7  0.037  0.994  0.737-   8 2.77  30 2.86   6 2.87 126 2.89  32 2.91  39 2.99  31 3.07 102 3.23
                           104 3.29
   8  0.121  0.112  0.870-  39 2.48   7 2.77  33 2.82  47 2.95  16 3.01  15 3.17   1 3.18  32 3.21
                             9 3.27
   9  0.978  0.223  0.016-   2 2.73  16 2.84  11 2.87  98 2.94 104 3.04 112 3.06 106 3.08 105 3.08
                            10 3.22   1 3.26   8 3.27
  10  0.127  0.359  0.124-  51 2.77  11 3.06  41 3.07  43 3.11   2 3.14  49 3.16   9 3.22  16 3.25
                            19 3.27
  11  0.974  0.237  0.219-   9 2.87  98 2.89   2 2.93 106 2.95 100 2.99  10 3.06 108 3.26
  12  0.126  0.350  0.384-  53 2.71  19 2.92  13 2.98   4 3.03  14 3.08  51 3.13  43 3.19  21 3.22

  13  0.976  0.252  0.498- 108 2.64  14 2.88 102 2.97  12 2.98 100 3.05   5 3.06   6 3.09 109 3.11
                             4 3.28
  14  0.123  0.350  0.603-  55 2.55  15 2.55  13 2.88  23 3.02  21 3.07  12 3.08  47 3.14  45 3.14
                            53 3.18   6 3.20
  15  0.028  0.260  0.729-  14 2.55  16 2.75   6 2.93  23 3.04  47 3.05   8 3.17 102 3.21
  16  0.105  0.323  0.897-  15 2.75   9 2.84  41 3.00  47 3.00   8 3.01  49 3.17  17 3.21  23 3.25
                            10 3.25
  17  0.986  0.496  0.984- 120 2.77  18 2.77 106 2.80 112 2.90 113 3.09  16 3.21  49 3.30
  18  0.095  0.593  0.116-  27 2.67  17 2.77  51 2.88  57 2.91  49 2.95 114 2.99  19 3.06  25 3.08

  19  0.004  0.481  0.279-  20 2.65 108 2.83  12 2.92  18 3.06 114 3.06 116 3.10  51 3.10  21 3.17
                           106 3.19  10 3.27
  20  0.103  0.609  0.374-  19 2.65  53 2.67  27 2.74  21 2.89  29 2.90  51 3.04 116 3.19  59 3.29

  21  0.993  0.494  0.503- 118 2.89  20 2.89 108 2.93  22 2.95  14 3.07 110 3.14  19 3.17  12 3.22
                           117 3.26 116 3.28
  22  0.136  0.606  0.607-  53 2.86  63 2.89  21 2.95  54 3.09  55 3.10  61 3.11  23 3.12  29 3.13

  23  0.021  0.475  0.745-  55 2.96  14 3.02  15 3.04  22 3.12 118 3.13 110 3.14 120 3.15  24 3.22
                            16 3.25
  24  0.127  0.650  0.849-  63 2.70  31 2.84  25 2.85  56 2.97  49 3.05 120 3.11  23 3.22
  25  0.026  0.757  0.988-  32 2.74  24 2.85 128 2.94 120 3.05  18 3.08  57 3.22  26 3.28
  26  0.122  0.899  0.146-  27 2.87   1 2.93   3 2.97  33 3.03  35 3.04  57 3.08  59 3.09  25 3.28

  27  0.045  0.733  0.235-  18 2.67  20 2.74 114 2.86  26 2.87  59 2.89 116 3.22
  28  0.151  0.910  0.378-  59 2.72  35 2.73  30 2.92   3 3.01  60 3.05  61 3.08  37 3.11   4 3.17
                            29 3.25
  29  0.021  0.757  0.491-  20 2.90 124 3.00  22 3.13  30 3.15 116 3.15 118 3.22  28 3.25  61 3.26

  30  0.147  0.915  0.586-   7 2.86  37 2.88  28 2.92  61 2.93   6 2.95  29 3.15  63 3.17  62 3.18

  31  0.017  0.777  0.737-  24 2.84  63 2.95 126 2.98  32 3.05   7 3.07 128 3.08 118 3.10 120 3.15

  32  0.131  0.885  0.886-  33 2.73  25 2.74  39 2.76   7 2.91   1 3.03  31 3.05  64 3.11   8 3.21
                            63 3.26
  33  0.235  0.006  0.996-  32 2.73   8 2.82  39 2.93   2 2.93  26 3.03  40 3.13  34 3.25  64 3.27

  34  0.389  0.099  0.141-  35 2.84  65 2.98  75 3.08  67 3.14  43 3.19  58 3.23  33 3.25  66 3.29
                            41 3.30  36 3.30
  35  0.239  0.039  0.262-   4 2.58  28 2.73  34 2.84   2 3.01  26 3.04  36 3.10  60 3.29
  36  0.400  0.140  0.372-  37 2.80  45 2.86  68 2.95  43 2.99  44 3.03  69 3.10  35 3.10  77 3.12
                            67 3.24  75 3.25  34 3.30
  37  0.288  0.035  0.498-  36 2.80  60 2.81  69 2.85  45 2.87  30 2.88   4 2.94   6 3.06  28 3.11
                            62 3.25
  38  0.409  0.176  0.681-  79 2.72  47 2.72  77 2.73  40 2.87  45 2.97  46 3.11  71 3.15
  39  0.243  0.013  0.789-   8 2.48  32 2.76  40 2.76  33 2.93   7 2.99  62 3.02  64 3.02  47 3.22

  40  0.381  0.121  0.876-  39 2.76  73 2.81  71 2.82  65 2.82  38 2.87  41 2.98  47 3.08  33 3.13
                            72 3.24
  41  0.275  0.251  0.004-  48 2.64  40 2.98  16 3.00  10 3.07   2 3.09  42 3.13  73 3.17  34 3.30

  42  0.389  0.405  0.116-  83 2.93  43 3.00  50 3.06  41 3.13  51 3.16  75 3.20  81 3.25
  43  0.288  0.271  0.247-  44 2.68  36 2.99  42 3.00  10 3.11  34 3.19  12 3.19  51 3.20
  44  0.383  0.354  0.390-  43 2.68  45 2.71  36 3.03  85 3.06  53 3.15  77 3.15  46 3.29
  45  0.295  0.238  0.515-  44 2.71  36 2.86  37 2.87  46 2.91  38 2.97  77 3.11  14 3.14   4 3.15
                             6 3.20
  46  0.390  0.387  0.622-  85 2.73  55 2.79  45 2.91  77 2.98  54 3.08  79 3.08  38 3.11  87 3.20
                            78 3.28  44 3.29
  47  0.242  0.239  0.756-  38 2.72  55 2.88   8 2.95  16 3.00  15 3.05  40 3.08  48 3.08  14 3.14
                            39 3.22   6 3.22
  48  0.369  0.362  0.886-  41 2.64  73 2.77  79 2.91  47 3.08  81 3.09  49 3.13  55 3.26
  49  0.220  0.500  0.976-  18 2.95  24 3.05  48 3.13  10 3.16  16 3.17  56 3.27  17 3.30
  50  0.401  0.620  0.148-  83 2.77  89 2.81  82 2.96  91 2.97  57 3.00  42 3.06  52 3.22  81 3.29

  51  0.221  0.488  0.239-  10 2.77  18 2.88  20 3.04  19 3.10  12 3.13  42 3.16  53 3.17  52 3.19
                            43 3.20
  52  0.352  0.616  0.371-  53 2.80  59 2.99  61 3.03  85 3.15  91 3.17  51 3.19  50 3.22  54 3.23
                            93 3.25
  53  0.225  0.495  0.463-  20 2.67  12 2.71  52 2.80  22 2.86  54 3.06  44 3.15  51 3.17  14 3.18

  54  0.355  0.602  0.600-  85 2.73  56 2.80  93 2.97  61 3.00  53 3.06  46 3.08  22 3.09  87 3.10
                            95 3.19  52 3.23  63 3.28
  55  0.227  0.440  0.720-  14 2.55  46 2.79  47 2.88  56 2.89  23 2.96  22 3.10  48 3.26
  56  0.326  0.603  0.797-  63 2.75  87 2.78  54 2.80  55 2.89  24 2.97  95 3.08  49 3.27
  57  0.239  0.732  0.067-  58 2.83  18 2.91  50 3.00  59 3.04  26 3.08  25 3.22  89 3.26
  58  0.363  0.871  0.145-  57 2.83  59 2.90  91 3.03  65 3.15  89 3.17  34 3.23  90 3.27  67 3.28

  59  0.241  0.772  0.279-  28 2.72  60 2.84  27 2.89  58 2.90  52 2.99  57 3.04  26 3.09  61 3.10
                            20 3.29
  60  0.366  0.888  0.387-  37 2.81  93 2.83  59 2.84  61 2.89  91 3.00  28 3.05  67 3.11  69 3.12
                            35 3.29
  61  0.252  0.759  0.498-  60 2.89  30 2.93  93 2.93  54 3.00  52 3.03  28 3.08  59 3.10  22 3.11
                            63 3.16  29 3.26  62 3.27
  62  0.358  0.887  0.660-  71 2.60  63 2.80  95 2.98  39 3.02  64 3.04  93 3.07  69 3.14  30 3.18
                            37 3.25  61 3.27
  63  0.225  0.753  0.721-  24 2.70  56 2.75  62 2.80  22 2.89  31 2.95  64 3.05  61 3.16  30 3.17
                            32 3.26  54 3.28
  64  0.348  0.846  0.872-  89 2.81  71 2.98  39 3.02  62 3.04  63 3.05  65 3.08  32 3.11  95 3.24
                            33 3.27
  65  0.474  0.983  0.987-  40 2.82  72 2.89  90 2.95  34 2.98  71 3.08  66 3.08  64 3.08  58 3.15
                            96 3.19
  66  0.620  0.093  0.108-  97 2.87  99 3.00  75 3.01  67 3.05  65 3.08 105 3.12  90 3.21  34 3.29
                            73 3.30
  67  0.528  0.980  0.268-  99 2.81  90 2.84  68 2.89  92 2.89  66 3.05  60 3.11  91 3.12  34 3.14
                            36 3.24  58 3.28
  68  0.609  0.139  0.369- 101 2.81  67 2.89  36 2.95  75 2.95  77 3.02  99 3.21 109 3.26
  69  0.487  0.011  0.526-  37 2.85  94 3.07  70 3.09  36 3.10  60 3.12  92 3.14  62 3.14  77 3.28

  70  0.645  0.108  0.644- 101 2.83 103 3.00 109 3.03  77 3.06  69 3.09 111 3.10  72 3.24 102 3.29

  71  0.475  0.981  0.768-  62 2.60  72 2.78  40 2.82  96 2.90  64 2.98  65 3.08  38 3.15
  72  0.609  0.085  0.870-  71 2.78  65 2.89  73 3.15  97 3.16  70 3.24  40 3.24
  73  0.498  0.246  0.978-  48 2.77  40 2.81  79 3.09  72 3.15  41 3.17  74 3.25  66 3.30
  74  0.635  0.385  0.102- 107 2.69  80 2.86  75 2.88  83 2.93 115 3.02 105 3.05 113 3.19  73 3.25

  75  0.526  0.253  0.214-  74 2.88  68 2.95  66 3.01 107 3.06  34 3.08  42 3.20  36 3.25  76 3.26

  76  0.618  0.376  0.387-  83 3.00  85 3.02 117 3.07 107 3.12  77 3.15  78 3.20 115 3.22  75 3.26
                           109 3.27
  77  0.515  0.241  0.532-  38 2.73  78 2.97  46 2.98  68 3.02  70 3.06  45 3.11  36 3.12  76 3.15
                            44 3.15  69 3.28
  78  0.623  0.404  0.612-  85 2.76 117 2.92  79 2.96  77 2.97 110 3.13  87 3.14 119 3.15  76 3.20
                           109 3.26  46 3.28
  79  0.527  0.301  0.768-  38 2.72  48 2.91  78 2.96  80 3.07  46 3.08  73 3.09 111 3.22
  80  0.663  0.406  0.902- 113 2.68 119 2.76  74 2.86 112 2.94  81 3.05  79 3.07 111 3.09 105 3.16
                            88 3.21
  81  0.493  0.531  0.952-  88 2.84  87 2.89  89 2.96  80 3.05  48 3.09  82 3.24  42 3.25  50 3.29

  82  0.609  0.634  0.121-  83 2.76  50 2.96 123 3.07 115 3.10  89 3.10 113 3.19  91 3.23  81 3.24
                            90 3.28
  83  0.528  0.500  0.239-  82 2.76  50 2.77  74 2.93  42 2.93 115 2.99  76 3.00  84 3.20
  84  0.611  0.632  0.404- 123 2.83  85 2.84  86 2.99  91 3.05 117 3.07 125 3.13  93 3.20  83 3.20

  85  0.492  0.503  0.504-  46 2.73  54 2.73  78 2.76  84 2.84  76 3.02  44 3.06  52 3.15  86 3.29

  86  0.645  0.641  0.614- 125 2.84  84 2.99 127 3.01  95 3.03 117 3.08  87 3.09 119 3.20  94 3.21
                            85 3.29
  87  0.505  0.537  0.747-  56 2.78  95 2.79  81 2.89  88 2.91  86 3.09  54 3.10  78 3.14  46 3.20

  88  0.646  0.631  0.867- 119 2.76  81 2.84 113 2.88  87 2.91 121 3.04  96 3.06 127 3.12  80 3.21
                            95 3.30
  89  0.459  0.734  0.994-  64 2.81  50 2.81  81 2.96  82 3.10  96 3.14  90 3.16  58 3.17  57 3.26

  90  0.593  0.867  0.114-  67 2.84  65 2.95  91 3.04  97 3.07  89 3.16  99 3.17 123 3.20  66 3.21
                            58 3.27  82 3.28
  91  0.495  0.761  0.275-  50 2.97 123 2.99  60 3.00  58 3.03  90 3.04  84 3.05  92 3.06  67 3.12
                            52 3.17  82 3.23
  92  0.620  0.870  0.416- 101 2.78 123 2.85  67 2.89  94 2.90 125 2.94  93 3.03  91 3.06  69 3.14
                            99 3.16
  93  0.460  0.763  0.513-  60 2.83  61 2.93  54 2.97  92 3.03  62 3.07  95 3.08  94 3.11  84 3.20
                            52 3.25
  94  0.621  0.868  0.622-  92 2.90  95 3.05  69 3.07  93 3.11 103 3.13 125 3.14  86 3.21 127 3.24
                           101 3.29
  95  0.488  0.734  0.728-  87 2.79  96 2.86  62 2.98  86 3.03  94 3.05  93 3.08  56 3.08  54 3.19
                            64 3.24  88 3.30
  96  0.598  0.843  0.858-  95 2.86  71 2.90  88 3.06  89 3.14  65 3.19 121 3.26
  97  0.749  0.974  0.005-  66 2.87  98 2.88 128 2.96 122 3.06 121 3.06  90 3.07  72 3.16
  98  0.862  0.091  0.129-   1 2.84  97 2.88  11 2.89   9 2.94   3 2.98 105 3.00  99 3.01 122 3.15

  99  0.727  0.982  0.254-  67 2.81  66 3.00 122 3.00  98 3.01  92 3.16  90 3.17 124 3.19 100 3.19
                            68 3.21 123 3.25 101 3.25
 100  0.855  0.135  0.362-   5 2.75 101 2.94   3 2.95 109 2.98  11 2.99  13 3.05  99 3.19 107 3.27
                           108 3.29
 101  0.726  0.022  0.482-  92 2.78  68 2.81  70 2.83 100 2.94 109 3.15  99 3.25 102 3.28  94 3.29

 102  0.878  0.119  0.629-   5 2.78 109 2.90  13 2.97 103 2.98 126 3.02  15 3.21 104 3.23   7 3.23
                           101 3.28 111 3.29  70 3.29
 103  0.776  0.972  0.742- 126 2.44 128 2.89 104 2.95 102 2.98  70 3.00  94 3.13 127 3.13
 104  0.877  0.114  0.859- 111 2.90 103 2.95   9 3.04 105 3.19   1 3.20 102 3.23   7 3.29
 105  0.759  0.235  0.010- 112 2.87  98 3.00  74 3.05   9 3.08  66 3.12 106 3.13 107 3.13  80 3.16
                           104 3.19
 106  0.878  0.391  0.114-  17 2.80 107 2.90  11 2.95 113 3.01   9 3.08 105 3.13 115 3.13  19 3.19
                           112 3.21
 107  0.741  0.285  0.226-  74 2.69 106 2.90  75 3.06  76 3.12 105 3.13 115 3.14 108 3.19 100 3.27

 108  0.879  0.366  0.386-  13 2.64  19 2.83  21 2.93 117 2.93 109 3.08 107 3.19  11 3.26 100 3.29

 109  0.756  0.241  0.516- 102 2.90 100 2.98 110 3.02  70 3.03 108 3.08  13 3.11 101 3.15  78 3.26
                            68 3.26  76 3.27
 110  0.843  0.396  0.636- 119 2.66 117 2.75 109 3.02 111 3.10  78 3.13  21 3.14  23 3.14 118 3.29

 111  0.750  0.251  0.774- 112 2.75 104 2.90  80 3.09  70 3.10 110 3.10  79 3.22 102 3.29
 112  0.866  0.359  0.888- 111 2.75 105 2.87  17 2.90  80 2.94   9 3.06 119 3.17 113 3.19 106 3.21

 113  0.770  0.533  0.997-  80 2.68  88 2.88 106 3.01 120 3.03  17 3.09 114 3.15  74 3.19 112 3.19
                            82 3.19 121 3.21
 114  0.890  0.624  0.162- 116 2.84  27 2.86 115 2.92  18 2.99  19 3.06 113 3.15
 115  0.740  0.507  0.244- 114 2.92  83 2.99  74 3.02  82 3.10 106 3.13 107 3.14 116 3.19  76 3.22

 116  0.879  0.641  0.363- 114 2.84 125 2.94  19 3.10 123 3.15 117 3.15  29 3.15 115 3.19  20 3.19
                           124 3.21  27 3.22  21 3.28
 117  0.762  0.501  0.492- 110 2.75  78 2.92 108 2.93  76 3.07  84 3.07  86 3.08 116 3.15 118 3.26
                            21 3.26
 118  0.900  0.623  0.632- 127 2.87  21 2.89  31 3.10  23 3.13 125 3.18 119 3.19  29 3.22 120 3.23
                           117 3.26 110 3.29
 119  0.754  0.507  0.761- 110 2.66  88 2.76  80 2.76 120 3.09  78 3.15 112 3.17 118 3.19  86 3.20

 120  0.907  0.628  0.861-  17 2.77 127 3.02 113 3.03  25 3.05 121 3.07 119 3.09  24 3.11  31 3.15
                            23 3.15 118 3.23
 121  0.778  0.760  0.978- 128 2.66  88 3.04  97 3.06 120 3.07 122 3.15 113 3.21  96 3.26
 122  0.874  0.868  0.148-   3 3.00  99 3.00  97 3.06   1 3.09 121 3.15  98 3.15 124 3.26
 123  0.707  0.753  0.275-  84 2.83  92 2.85  91 2.99  82 3.07 116 3.15  90 3.20  99 3.25 124 3.26

 124  0.878  0.868  0.380- 125 2.79   3 2.83  29 3.00   5 3.06  99 3.19 116 3.21 123 3.26 122 3.26

 125  0.770  0.753  0.501- 124 2.79  86 2.84  92 2.94 116 2.94  84 3.13  94 3.14 118 3.18 126 3.24

 126  0.888  0.904  0.628- 103 2.44   7 2.89  31 2.98 102 3.02   5 3.06 127 3.07 125 3.24
 127  0.781  0.750  0.738- 118 2.87  86 3.01 120 3.02 126 3.07  88 3.12 103 3.13 128 3.15  94 3.24

 128  0.891  0.879  0.884- 121 2.66   1 2.79 103 2.89  25 2.94  97 2.96  31 3.08 127 3.15
 

IMPORTANT INFORMATION: All symmetrisations will be switched off!
NOSYMM: (Re-)initialisation of all symmetry stuff for point group C_1.

 
 
 KPOINTS: K-Points                                

Automatic generation of k-mesh.
Space group operators:
 irot       det(A)        alpha          n_x          n_y          n_z        tau_x        tau_y        tau_z
    1     1.000000     0.000000     1.000000     0.000000     0.000000     0.000000     0.000000     0.000000
 
 Subroutine IBZKPT returns following result:
 ===========================================
 
 Found     36 irreducible k-points:
 
 Following reciprocal coordinates:
            Coordinates               Weight
  0.000000  0.000000  0.000000      1.000000
  0.250000  0.000000  0.000000      2.000000
  0.500000  0.000000  0.000000      1.000000
  0.000000  0.250000  0.000000      2.000000
  0.250000  0.250000  0.000000      2.000000
  0.500000  0.250000  0.000000      2.000000
 -0.250000  0.250000  0.000000      2.000000
  0.000000  0.500000  0.000000      1.000000
  0.250000  0.500000  0.000000      2.000000
  0.500000  0.500000  0.000000      1.000000
  0.000000  0.000000  0.250000      2.000000
  0.250000  0.000000  0.250000      2.000000
  0.500000  0.000000  0.250000      2.000000
 -0.250000  0.000000  0.250000      2.000000
  0.000000  0.250000  0.250000      2.000000
  0.250000  0.250000  0.250000      2.000000
  0.500000  0.250000  0.250000      2.000000
 -0.250000  0.250000  0.250000      2.000000
  0.000000  0.500000  0.250000      2.000000
  0.250000  0.500000  0.250000      2.000000
  0.500000  0.500000  0.250000      2.000000
 -0.250000  0.500000  0.250000      2.000000
  0.000000 -0.250000  0.250000      2.000000
  0.250000 -0.250000  0.250000      2.000000
  0.500000 -0.250000  0.250000      2.000000
 -0.250000 -0.250000  0.250000      2.000000
  0.000000  0.000000  0.500000      1.000000
  0.250000  0.000000  0.500000      2.000000
  0.500000  0.000000  0.500000      1.000000
  0.000000  0.250000  0.500000      2.000000
  0.250000  0.250000  0.500000      2.000000
  0.500000  0.250000  0.500000      2.000000
 -0.250000  0.250000  0.500000      2.000000
  0.000000  0.500000  0.500000      1.000000
  0.250000  0.500000  0.500000      2.000000
  0.500000  0.500000  0.500000      1.000000
 
 Following cartesian coordinates:
            Coordinates               Weight
  0.000000  0.000000  0.000000      1.000000
  0.017756  0.000000  0.000000      2.000000
  0.035511  0.000000  0.000000      1.000000
  0.000000  0.017756  0.000000      2.000000
  0.017756  0.017756  0.000000      2.000000
  0.035511  0.017756  0.000000      2.000000
 -0.017756  0.017756  0.000000      2.000000
  0.000000  0.035511  0.000000      1.000000
  0.017756  0.035511  0.000000      2.000000
  0.035511  0.035511  0.000000      1.000000
  0.000000  0.000000  0.017756      2.000000
  0.017756  0.000000  0.017756      2.000000
  0.035511  0.000000  0.017756      2.000000
 -0.017756  0.000000  0.017756      2.000000
  0.000000  0.017756  0.017756      2.000000
  0.017756  0.017756  0.017756      2.000000
  0.035511  0.017756  0.017756      2.000000
 -0.017756  0.017756  0.017756      2.000000
  0.000000  0.035511  0.017756      2.000000
  0.017756  0.035511  0.017756      2.000000
  0.035511  0.035511  0.017756      2.000000
 -0.017756  0.035511  0.017756      2.000000
  0.000000 -0.017756  0.017756      2.000000
  0.017756 -0.017756  0.017756      2.000000
  0.035511 -0.017756  0.017756      2.000000
 -0.017756 -0.017756  0.017756      2.000000
  0.000000  0.000000  0.035511      1.000000
  0.017756  0.000000  0.035511      2.000000
  0.035511  0.000000  0.035511      1.000000
  0.000000  0.017756  0.035511      2.000000
  0.017756  0.017756  0.035511      2.000000
  0.035511  0.017756  0.035511      2.000000
 -0.017756  0.017756  0.035511      2.000000
  0.000000  0.035511  0.035511      1.000000
  0.017756  0.035511  0.035511      2.000000
  0.035511  0.035511  0.035511      1.000000
 


--------------------------------------------------------------------------------------------------------




 Dimension of arrays:
   k-points           NKPTS =     36   k-points in BZ     NKDIM =     36   number of bands    NBANDS=    129
   number of dos      NEDOS =    301   number of ions     NIONS =    128
   non local maximal  LDIM  =      3   non local SUM 2l+1 LMDIM =      5
   total plane-waves  NPLWV = 729000
   max r-space proj   IRMAX =      1   max aug-charges    IRDMAX=   8555
   dimension x,y,z NGX =    90 NGY =   90 NGZ =   90
   dimension x,y,z NGXF=   180 NGYF=  180 NGZF=  180
   support grid    NGXF=   180 NGYF=  180 NGZF=  180
   ions per type =             128
 NGX,Y,Z   is equivalent  to a cutoff of  10.63, 10.63, 10.63 a.u.
 NGXF,Y,Z  is equivalent  to a cutoff of  21.25, 21.25, 21.25 a.u.


 I would recommend the setting:
   dimension x,y,z NGX =    86 NGY =   86 NGZ =   86
 SYSTEM =  bcc Li                                  
 POSCAR =  MLIP output to VASP                     

 Startparameter for this run:
   NWRITE =      2    write-flag & timer
   PREC   = a         normal or accurate (medium, high low for compatibility)
   ISTART =      0    job   : 0-new  1-cont  2-samecut
   ICHARG =      1    charge: 1-file 2-atom 10-const
   ISPIN  =      1    spin polarized calculation?
   LNONCOLLINEAR =      F non collinear calculations
   LSORBIT =      F    spin-orbit coupling
   INIWAV =      1    electr: 0-lowe 1-rand  2-diag
   LASPH  =      F    aspherical Exc in radial PAW
   METAGGA=      F    non-selfconsistent MetaGGA calc.

 Electronic Relaxation 1
   ENCUT  =  350.0 eV  25.72 Ry    5.07 a.u.  21.48 21.48 21.48*2*pi/ulx,y,z
   ENINI  =  350.0     initial cutoff
   ENAUG  =  331.6 eV  augmentation charge cutoff
   NELM   =     80;   NELMIN=  2; NELMDL=  0     # of ELM steps 
   EDIFF  = 0.1E-04   stopping-criterion for ELM
   LREAL  =      F    real-space projection
   NLSPLINE    = F    spline interpolate recip. space projectors
   LCOMPAT=      F    compatible to vasp.4.4
   GGA_COMPAT  = T    GGA compatible to vasp.4.4-vasp.4.6
   LMAXPAW     = -100 max onsite density
   LMAXMIX     =    2 max onsite mixed and CHGCAR
   VOSKOWN=      0    Vosko Wilk Nusair interpolation
   ROPT   =    0.00000
 Ionic relaxation
   EDIFFG = 0.1E-03   stopping-criterion for IOM
   NSW    =      0    number of steps for IOM
   NBLOCK =      1;   KBLOCK =      1    inner block; outer block 
   IBRION =     -1    ionic relax: 0-MD 1-quasi-New 2-CG
   NFREE  =      0    steps in history (QN), initial steepest desc. (CG)
   ISIF   =      2    stress and relaxation
   IWAVPR =     10    prediction:  0-non 1-charg 2-wave 3-comb
   ISYM   =      0    0-nonsym 1-usesym 2-fastsym
   LCORR  =      T    Harris-Foulkes like correction to forces

   POTIM  = 0.5000    time-step for ionic-motion
   TEIN   =    0.0    initial temperature
   TEBEG  =    0.0;   TEEND  =   0.0 temperature during run
   SMASS  =  -3.00    Nose mass-parameter (am)
   estimated Nose-frequenzy (Omega)   =  0.10E-29 period in steps =****** mass=  -0.453E-26a.u.
   SCALEE = 1.0000    scale energy and forces
   NPACO  =    256;   APACO  = 16.0  distance and # of slots for P.C.
   PSTRESS=    0.0 pullay stress

  Mass of Ions in am
   POMASS =   7.01
  Ionic Valenz
   ZVAL   =   1.00
  Atomic Wigner-Seitz radii
   RWIGS  =  -1.00
  virtual crystal weights 
   VCA    =   1.00
   NELECT =     128.0000    total number of electrons
   NUPDOWN=      -1.0000    fix difference up-down

 DOS related values:
   EMIN   =  10.00;   EMAX   =-10.00  energy-range for DOS
   EFERMI =   0.00
   ISMEAR =     0;   SIGMA  =   0.10  broadening in eV -4-tet -1-fermi 0-gaus

 Electronic relaxation 2 (details)
   IALGO  =     38    algorithm
   LDIAG  =      T    sub-space diagonalisation (order eigenvalues)
   LSUBROT=      F    optimize rotation matrix (better conditioning)
   TURBO    =      0    0=normal 1=particle mesh
   IRESTART =      0    0=no restart 2=restart with 2 vectors
   NREBOOT  =      0    no. of reboots
   NMIN     =      0    reboot dimension
   EREF     =   0.00    reference energy to select bands
   IMIX   =      4    mixing-type and parameters
     AMIX     =   0.40;   BMIX     =  1.00
     AMIX_MAG =   1.60;   BMIX_MAG =  1.00
     AMIN     =   0.10
     WC   =   100.;   INIMIX=   1;  MIXPRE=   1;  MAXMIX= -45

 Intra band minimization:
   WEIMIN = 0.0000     energy-eigenvalue tresh-hold
   EBREAK =  0.19E-07  absolut break condition
   DEPER  =   0.30     relativ break condition  

   TIME   =   0.40     timestep for ELM

  volume/ion in A,a.u.               =      21.81       147.16
  Fermi-wavevector in a.u.,A,eV,Ry     =   0.585970  1.107323  4.671710  0.343361
  Thomas-Fermi vector in A             =   1.632269
 
 Write flags
   LWAVE  =      F    write WAVECAR
   LCHARG =      F    write CHGCAR
   LVTOT  =      F    write LOCPOT, total local potential
   LVHAR  =      F    write LOCPOT, Hartree potential only
   LELF   =      F    write electronic localiz. function (ELF)
   LORBIT =      0    0 simple, 1 ext, 2 COOP (PROOUT)


 Dipole corrections
   LMONO  =      F    monopole corrections only (constant potential shift)
   LDIPOL =      F    correct potential (dipole corrections)
   IDIPOL =      0    1-x, 2-y, 3-z, 4-all directions 
   EPSILON=  1.0000000 bulk dielectric constant

 Exchange correlation treatment:
   GGA     =    --    GGA type
   LEXCH   =     8    internal setting for exchange type
   VOSKOWN=      0    Vosko Wilk Nusair interpolation
   LHFCALC =     F    Hartree Fock is set to
   LHFONE  =     F    Hartree Fock one center treatment
   AEXX    =    0.0000 exact exchange contribution

 Linear response parameters
   LEPSILON=     F    determine dielectric tensor
   LRPA    =     F    only Hartree local field effects (RPA)
   LNABLA  =     F    use nabla operator in PAW spheres
   LVEL    =     F    velocity operator in full k-point grid
   LINTERFAST=   F  fast interpolation
   KINTER  =     0    interpolate to denser k-point grid
   CSHIFT  =0.1000    complex shift for real part using Kramers Kronig
   OMEGAMAX=  -1.0    maximum frequency
   DEG_THRESHOLD= 0.2000000E-02 threshold for treating states as degnerate
   RTIME   =    0.100 relaxation time in fs

 Orbital magnetization related:
   ORBITALMAG=     F  switch on orbital magnetization
   LCHIMAG   =     F  perturbation theory with respect to B field
   DQ        =  0.001000  dq finite difference perturbation B field



--------------------------------------------------------------------------------------------------------


 Static calculation
 charge density and potential will be updated during run
 non-spin polarized calculation
 Variant of blocked Davidson
 Davidson routine will perform the subspace rotation
 perform sub-space diagonalisation
    after iterative eigenvector-optimisation
 modified Broyden-mixing scheme, WC =      100.0
 initial mixing is a Kerker type mixing with AMIX =  0.4000 and BMIX =      1.0000
 Hartree-type preconditioning will be used
 using additional bands           65
 reciprocal scheme for non local part
 use partial core corrections
 calculate Harris-corrections to forces 
   (improved forces if not selfconsistent)
 use gradient corrections 
 use of overlap-Matrix (Vanderbilt PP)
 Methfessel and Paxton  Order N= 1 SIGMA  =   0.10


--------------------------------------------------------------------------------------------------------


  energy-cutoff  :      350.00
  volume of cell :     2791.31
      direct lattice vectors                 reciprocal lattice vectors
    14.080000000  0.000000000  0.000000000     0.071022727  0.000000000  0.000000000
     0.000000000 14.080000000  0.000000000     0.000000000  0.071022727  0.000000000
     0.000000000  0.000000000 14.080000000     0.000000000  0.000000000  0.071022727

  length of vectors
    14.080000000 14.080000000 14.080000000     0.071022727  0.071022727  0.071022727


 
 k-points in units of 2pi/SCALE and weight: K-Points                                
   0.00000000  0.00000000  0.00000000       0.016
   0.01775568  0.00000000  0.00000000       0.031
   0.03551136  0.00000000  0.00000000       0.016
   0.00000000  0.01775568  0.00000000       0.031
   0.01775568  0.01775568  0.00000000       0.031
   0.03551136  0.01775568  0.00000000       0.031
  -0.01775568  0.01775568  0.00000000       0.031
   0.00000000  0.03551136  0.00000000       0.016
   0.01775568  0.03551136  0.00000000       0.031
   0.03551136  0.03551136  0.00000000       0.016
   0.00000000  0.00000000  0.01775568       0.031
   0.01775568  0.00000000  0.01775568       0.031
   0.03551136  0.00000000  0.01775568       0.031
  -0.01775568  0.00000000  0.01775568       0.031
   0.00000000  0.01775568  0.01775568       0.031
   0.01775568  0.01775568  0.01775568       0.031
   0.03551136  0.01775568  0.01775568       0.031
  -0.01775568  0.01775568  0.01775568       0.031
   0.00000000  0.03551136  0.01775568       0.031
   0.01775568  0.03551136  0.01775568       0.031
   0.03551136  0.03551136  0.01775568       0.031
  -0.01775568  0.03551136  0.01775568       0.031
   0.00000000 -0.01775568  0.01775568       0.031
   0.01775568 -0.01775568  0.01775568       0.031
   0.03551136 -0.01775568  0.01775568       0.031
  -0.01775568 -0.01775568  0.01775568       0.031
   0.00000000  0.00000000  0.03551136       0.016
   0.01775568  0.00000000  0.03551136       0.031
   0.03551136  0.00000000  0.03551136       0.016
   0.00000000  0.01775568  0.03551136       0.031
   0.01775568  0.01775568  0.03551136       0.031
   0.03551136  0.01775568  0.03551136       0.031
  -0.01775568  0.01775568  0.03551136       0.031
   0.00000000  0.03551136  0.03551136       0.016
   0.01775568  0.03551136  0.03551136       0.031
   0.03551136  0.03551136  0.03551136       0.016
 
 k-points in reciprocal lattice and weights: K-Points                                
   0.00000000  0.00000000  0.00000000       0.016
   0.25000000  0.00000000  0.00000000       0.031
   0.50000000  0.00000000  0.00000000       0.016
   0.00000000  0.25000000  0.00000000       0.031
   0.25000000  0.25000000  0.00000000       0.031
   0.50000000  0.25000000  0.00000000       0.031
  -0.25000000  0.25000000  0.00000000       0.031
   0.00000000  0.50000000  0.00000000       0.016
   0.25000000  0.50000000  0.00000000       0.031
   0.50000000  0.50000000  0.00000000       0.016
   0.00000000  0.00000000  0.25000000       0.031
   0.25000000  0.00000000  0.25000000       0.031
   0.50000000  0.00000000  0.25000000       0.031
  -0.25000000  0.00000000  0.25000000       0.031
   0.00000000  0.25000000  0.25000000       0.031
   0.25000000  0.25000000  0.25000000       0.031
   0.50000000  0.25000000  0.25000000       0.031
  -0.25000000  0.25000000  0.25000000       0.031
   0.00000000  0.50000000  0.25000000       0.031
   0.25000000  0.50000000  0.25000000       0.031
   0.50000000  0.50000000  0.25000000       0.031
  -0.25000000  0.50000000  0.25000000       0.031
   0.00000000 -0.25000000  0.25000000       0.031
   0.25000000 -0.25000000  0.25000000       0.031
   0.50000000 -0.25000000  0.25000000       0.031
  -0.25000000 -0.25000000  0.25000000       0.031
   0.00000000  0.00000000  0.50000000       0.016
   0.25000000  0.00000000  0.50000000       0.031
   0.50000000  0.00000000  0.50000000       0.016
   0.00000000  0.25000000  0.50000000       0.031
   0.25000000  0.25000000  0.50000000       0.031
   0.50000000  0.25000000  0.50000000       0.031
  -0.25000000  0.25000000  0.50000000       0.031
   0.00000000  0.50000000  0.50000000       0.016
   0.25000000  0.50000000  0.50000000       0.031
   0.50000000  0.50000000  0.50000000       0.016
 
 position of ions in fractional coordinates (direct lattice) 
   0.99259943  0.99191761  0.01153125
   0.12221307  0.13649148  0.11244460
   0.98683949  0.99901989  0.27317188
   0.14320881  0.13533168  0.38555398
   0.97495028  0.03579190  0.47886932
   0.11913210  0.12238423  0.60199148
   0.03731960  0.99374290  0.73750000
   0.12116051  0.11214063  0.87022727
   0.97796165  0.22281605  0.01578054
   0.12724006  0.35891051  0.12350355
   0.97441761  0.23720952  0.21892614
   0.12555185  0.34962642  0.38443324
   0.97614347  0.25238210  0.49827912
   0.12276420  0.34968253  0.60315128
   0.02759304  0.25999787  0.72889915
   0.10544034  0.32348509  0.89672585
   0.98593750  0.49635227  0.98435369
   0.09480611  0.59329616  0.11618324
   0.00431250  0.48092116  0.27874645
   0.10345313  0.60948153  0.37397443
   0.99317472  0.49373011  0.50315483
   0.13588778  0.60639418  0.60740270
   0.02148864  0.47521804  0.74482955
   0.12665767  0.64951989  0.84882102
   0.02571946  0.75697443  0.98798295
   0.12204545  0.89934659  0.14562287
   0.04525639  0.73253551  0.23482102
   0.15050923  0.91049006  0.37834446
   0.02096804  0.75682528  0.49129830
   0.14745455  0.91524858  0.58567188
   0.01749929  0.77686790  0.73687500
   0.13111080  0.88487926  0.88615767
   0.23467969  0.00576491  0.99640625
   0.38871804  0.09880540  0.14127557
   0.23863352  0.03860511  0.26218182
   0.39992259  0.14038423  0.37173509
   0.28833097  0.03487571  0.49777344
   0.40854901  0.17594105  0.68112287
   0.24263494  0.01332528  0.78887784
   0.38131321  0.12130256  0.87576705
   0.27487216  0.25103551  0.00416193
   0.38902628  0.40525852  0.11588636
   0.28805114  0.27130895  0.24749574
   0.38314276  0.35430398  0.39020170
   0.29451065  0.23799503  0.51504119
   0.39011506  0.38748295  0.62150213
   0.24179048  0.23948011  0.75580966
   0.36850142  0.36195810  0.88578835
   0.22009233  0.50047514  0.97577415
   0.40124716  0.62009446  0.14782031
   0.22054545  0.48835795  0.23861222
   0.35203409  0.61610866  0.37122159
   0.22471307  0.49451136  0.46343324
   0.35487429  0.60199219  0.60021378
   0.22705469  0.44044957  0.72031960
   0.32610582  0.60346023  0.79689631
   0.23925497  0.73224432  0.06669602
   0.36299148  0.87059659  0.14471449
   0.24144460  0.77233665  0.27888565
   0.36608807  0.88798295  0.38699716
   0.25239347  0.75874290  0.49815980
   0.35848864  0.88686080  0.66010227
   0.22487287  0.75255682  0.72076705
   0.34840625  0.84592330  0.87201705
   0.47448864  0.98273437  0.98686080
   0.61953835  0.09286009  0.10774858
   0.52800639  0.97960227  0.26825639
   0.60935298  0.13893040  0.36914844
   0.48724929  0.01053196  0.52626634
   0.64471946  0.10800497  0.64405469
   0.47489844  0.98051847  0.76833097
   0.60874716  0.08489062  0.86988636
   0.49826847  0.24625355  0.97837358
   0.63458026  0.38532173  0.10235085
   0.52576562  0.25256321  0.21411719
   0.61825497  0.37575852  0.38651634
   0.51454190  0.24145810  0.53215341
   0.62258168  0.40384517  0.61191477
   0.52720312  0.30076847  0.76803977
   0.66320384  0.40626705  0.90239347
   0.49254119  0.53058381  0.95181818
   0.60904972  0.63408807  0.12101705
   0.52758097  0.50006605  0.23880256
   0.61098366  0.63189702  0.40425284
   0.49190057  0.50333807  0.50442827
   0.64526136  0.64138281  0.61355682
   0.50547159  0.53737855  0.74708807
   0.64563778  0.63097301  0.86675426
   0.45911648  0.73362926  0.99380682
   0.59322159  0.86668324  0.11434588
   0.49468466  0.76065341  0.27482884
   0.61962074  0.86953125  0.41554474
   0.46011506  0.76254261  0.51262713
   0.62132386  0.86772017  0.62167827
   0.48775781  0.73365767  0.72766335
   0.59821733  0.84276989  0.85842330
   0.74904830  0.97359375  0.00544389
   0.86228693  0.09097585  0.12931463
   0.72735085  0.98174006  0.25409375
   0.85453835  0.13539844  0.36195099
   0.72620739  0.02213139  0.48159872
   0.87801847  0.11902131  0.62947159
   0.77616477  0.97171165  0.74208097
   0.87727983  0.11389915  0.85862216
   0.75935369  0.23453054  0.00985227
   0.87772727  0.39087855  0.11410369
   0.74054687  0.28508665  0.22585440
   0.87861506  0.36633097  0.38557244
   0.75615767  0.24100000  0.51632102
   0.84321733  0.39624503  0.63595739
   0.75011364  0.25144886  0.77355824
   0.86635653  0.35892330  0.88836648
   0.76969460  0.53298366  0.99681818
   0.88989347  0.62437500  0.16184659
   0.73967330  0.50714347  0.24438068
   0.87907670  0.64083807  0.36289205
   0.76180398  0.50120028  0.49235582
   0.90019176  0.62316122  0.63220241
   0.75426847  0.50720668  0.76073153
   0.90706676  0.62779759  0.86146307
   0.77847301  0.75998580  0.97786222
   0.87397727  0.86827415  0.14838849
   0.70662429  0.75294744  0.27515412
   0.87763494  0.86806818  0.38023722
   0.77022727  0.75344460  0.50121165
   0.88782670  0.90448864  0.62837003
   0.78102983  0.74965199  0.73818182
   0.89145597  0.87879261  0.88380682
 
 position of ions in cartesian coordinates  (Angst):
  13.97580000 13.96620000  0.16236000
   1.72076000  1.92180000  1.58322000
  13.89470000 14.06620000  3.84626000
   2.01638000  1.90547000  5.42860000
  13.72730000  0.50395000  6.74248000
   1.67738000  1.72317000  8.47604000
   0.52546000 13.99190000 10.38400000
   1.70594000  1.57894000 12.25280000
  13.76970000  3.13725000  0.22219000
   1.79154000  5.05346000  1.73893000
  13.71980000  3.33991000  3.08248000
   1.76777000  4.92274000  5.41282000
  13.74410000  3.55354000  7.01577000
   1.72852000  4.92353000  8.49237000
   0.38851000  3.66077000 10.26290000
   1.48460000  4.55467000 12.62590000
  13.88200000  6.98864000 13.85970000
   1.33487000  8.35361000  1.63586000
   0.06072000  6.77137000  3.92475000
   1.45662000  8.58150000  5.26556000
  13.98390000  6.95172000  7.08442000
   1.91330000  8.53803000  8.55223000
   0.30256000  6.69107000 10.48720000
   1.78334000  9.14524000 11.95140000
   0.36213000 10.65820000 13.91080000
   1.71840000 12.66280000  2.05037000
   0.63721000 10.31410000  3.30628000
   2.11917000 12.81970000  5.32709000
   0.29523000 10.65610000  6.91748000
   2.07616000 12.88670000  8.24626000
   0.24639000 10.93830000 10.37520000
   1.84604000 12.45910000 12.47710000
   3.30429000  0.08117000 14.02940000
   5.47315000  1.39118000  1.98916000
   3.35996000  0.54356000  3.69152000
   5.63091000  1.97661000  5.23403000
   4.05970000  0.49105000  7.00865000
   5.75237000  2.47725000  9.59021000
   3.41630000  0.18762000 11.10740000
   5.36889000  1.70794000 12.33080000
   3.87020000  3.53458000  0.05860000
   5.47749000  5.70604000  1.63168000
   4.05576000  3.82003000  3.48474000
   5.39465000  4.98860000  5.49404000
   4.14671000  3.35097000  7.25178000
   5.49282000  5.45576000  8.75075000
   3.40441000  3.37188000 10.64180000
   5.18850000  5.09637000 12.47190000
   3.09890000  7.04669000 13.73890000
   5.64956000  8.73093000  2.08131000
   3.10528000  6.87608000  3.35966000
   4.95664000  8.67481000  5.22680000
   3.16396000  6.96272000  6.52514000
   4.99663000  8.47605000  8.45101000
   3.19693000  6.20153000 10.14210000
   4.59157000  8.49672000 11.22030000
   3.36871000 10.31000000  0.93908000
   5.11092000 12.25800000  2.03758000
   3.39954000 10.87450000  3.92671000
   5.15452000 12.50280000  5.44892000
   3.55370000 10.68310000  7.01409000
   5.04752000 12.48700000  9.29424000
   3.16621000 10.59600000 10.14840000
   4.90556000 11.91060000 12.27800000
   6.68080000 13.83690000 13.89500000
   8.72310000  1.30747000  1.51710000
   7.43433000 13.79280000  3.77705000
   8.57969000  1.95614000  5.19761000
   6.86047000  0.14829000  7.40983000
   9.07765000  1.52071000  9.06829000
   6.68657000 13.80570000 10.81810000
   8.57116000  1.19526000 12.24800000
   7.01562000  3.46725000 13.77550000
   8.93489000  5.42533000  1.44110000
   7.40278000  3.55609000  3.01477000
   8.70503000  5.29068000  5.44215000
   7.24475000  3.39973000  7.49272000
   8.76595000  5.68614000  8.61576000
   7.42302000  4.23482000 10.81400000
   9.33791000  5.72024000 12.70570000
   6.93498000  7.47062000 13.40160000
   8.57542000  8.92796000  1.70392000
   7.42834000  7.04093000  3.36234000
   8.60265000  8.89711000  5.69188000
   6.92596000  7.08700000  7.10235000
   9.08528000  9.03067000  8.63888000
   7.11704000  7.56629000 10.51900000
   9.09058000  8.88410000 12.20390000
   6.46436000 10.32950000 13.99280000
   8.35256000 12.20290000  1.60999000
   6.96516000 10.71000000  3.86959000
   8.72426000 12.24300000  5.85087000
   6.47842000 10.73660000  7.21779000
   8.74824000 12.21750000  8.75323000
   6.86763000 10.32990000 10.24550000
   8.42290000 11.86620000 12.08660000
  10.54660000 13.70820000  0.07665000
  12.14100000  1.28094000  1.82075000
  10.24110000 13.82290000  3.57764000
  12.03190000  1.90641000  5.09627000
  10.22500000  0.31161000  6.78091000
  12.36250000  1.67582000  8.86296000
  10.92840000 13.68170000 10.44850000
  12.35210000  1.60370000 12.08940000
  10.69170000  3.30219000  0.13872000
  12.35840000  5.50357000  1.60658000
  10.42690000  4.01402000  3.18003000
  12.37090000  5.15794000  5.42886000
  10.64670000  3.39328000  7.26980000
  11.87250000  5.57913000  8.95428000
  10.56160000  3.54040000 10.89170000
  12.19830000  5.05364000 12.50820000
  10.83730000  7.50441000 14.03520000
  12.52970000  8.79120000  2.27880000
  10.41460000  7.14058000  3.44088000
  12.37740000  9.02300000  5.10952000
  10.72620000  7.05690000  6.93237000
  12.67470000  8.77411000  8.90141000
  10.62010000  7.14147000 10.71110000
  12.77150000  8.83939000 12.12940000
  10.96090000 10.70060000 13.76830000
  12.30560000 12.22530000  2.08931000
   9.94927000 10.60150000  3.87417000
  12.35710000 12.22240000  5.35374000
  10.84480000 10.60850000  7.05706000
  12.50060000 12.73520000  8.84745000
  10.99690000 10.55510000 10.39360000
  12.55170000 12.37340000 12.44400000
 


--------------------------------------------------------------------------------------------------------


 k-point  1 :   0.0000 0.0000 0.0000  plane waves:   41755
 k-point  2 :   0.2500 0.0000 0.0000  plane waves:   41511
 k-point  3 :   0.5000 0.0000 0.0000  plane waves:   41586
 k-point  4 :   0.0000 0.2500 0.0000  plane waves:   41511
 k-point  5 :   0.2500 0.2500 0.0000  plane waves:   41558
 k-point  6 :   0.5000 0.2500 0.0000  plane waves:   41444
 k-point  7 :  -0.2500 0.2500 0.0000  plane waves:   41558
 k-point  8 :   0.0000 0.5000 0.0000  plane waves:   41586
 k-point  9 :   0.2500 0.5000 0.0000  plane waves:   41444
 k-point 10 :   0.5000 0.5000 0.0000  plane waves:   41364
 k-point 11 :   0.0000 0.0000 0.2500  plane waves:   41511
 k-point 12 :   0.2500 0.0000 0.2500  plane waves:   41558
 k-point 13 :   0.5000 0.0000 0.2500  plane waves:   41444
 k-point 14 :  -0.2500 0.0000 0.2500  plane waves:   41558
 k-point 15 :   0.0000 0.2500 0.2500  plane waves:   41558
 k-point 16 :   0.2500 0.2500 0.2500  plane waves:   41566
 k-point 17 :   0.5000 0.2500 0.2500  plane waves:   41462
 k-point 18 :  -0.2500 0.2500 0.2500  plane waves:   41566
 k-point 19 :   0.0000 0.5000 0.2500  plane waves:   41444
 k-point 20 :   0.2500 0.5000 0.2500  plane waves:   41462
 k-point 21 :   0.5000 0.5000 0.2500  plane waves:   41468
 k-point 22 :  -0.2500 0.5000 0.2500  plane waves:   41462
 k-point 23 :   0.0000-0.2500 0.2500  plane waves:   41558
 k-point 24 :   0.2500-0.2500 0.2500  plane waves:   41566
 k-point 25 :   0.5000-0.2500 0.2500  plane waves:   41462
 k-point 26 :  -0.2500-0.2500 0.2500  plane waves:   41566
 k-point 27 :   0.0000 0.0000 0.5000  plane waves:   41586
 k-point 28 :   0.2500 0.0000 0.5000  plane waves:   41444
 k-point 29 :   0.5000 0.0000 0.5000  plane waves:   41364
 k-point 30 :   0.0000 0.2500 0.5000  plane waves:   41444
 k-point 31 :   0.2500 0.2500 0.5000  plane waves:   41462
 k-point 32 :   0.5000 0.2500 0.5000  plane waves:   41468
 k-point 33 :  -0.2500 0.2500 0.5000  plane waves:   41462
 k-point 34 :   0.0000 0.5000 0.5000  plane waves:   41364
 k-point 35 :   0.2500 0.5000 0.5000  plane waves:   41468
 k-point 36 :   0.5000 0.5000 0.5000  plane waves:   41472

 maximum and minimum number of plane-waves per node :      2656     2542

 maximum number of plane-waves:     41755
 maximum index in each direction: 
   IXMAX=   21   IYMAX=   21   IZMAX=   21
   IXMIN=  -21   IYMIN=  -21   IZMIN=  -21

 NGX is ok and might be reduce to  86
 NGY is ok and might be reduce to  86
 NGZ is ok and might be reduce to  86

 parallel 3D FFT for wavefunctions:
    minimum data exchange during FFTs selected (reduces bandwidth)
 parallel 3D FFT for charge:
    minimum data exchange during FFTs selected (reduces bandwidth)


 total amount of memory used by VASP on root node   269460. kBytes
========================================================================

   base      :      30000. kBytes
   nonl-proj :       9026. kBytes
   fftplans  :      14402. kBytes
   grid      :      20753. kBytes
   one-center:          9. kBytes
   wavefun   :     195270. kBytes
 
     INWAV:  cpu time    0.0000: real time    0.0001
 Broyden mixing: mesh for mixing (old mesh)
   NGX = 43   NGY = 43   NGZ = 43
  (NGX  =180   NGY  =180   NGZ  =180)
  gives a total of  79507 points

 initial charge density was supplied:
 charge density of overlapping atoms calculated
 number of electron     128.0000000 magnetization 
 keeping initial charge density in first step


--------------------------------------------------------------------------------------------------------


 Maximum index for augmentation-charges          954 (set IRDMAX)


--------------------------------------------------------------------------------------------------------


 First call to EWALD:  gamma=   0.126
 Maximum number of real-space cells 3x 3x 3
 Maximum number of reciprocal cells 3x 3x 3

 FEWALD executed in parallel
    FEWALD:  cpu time    0.0080: real time    0.0093


----------------------------------------- Iteration    1(   1)  ---------------------------------------


    POTLOK:  cpu time    0.3070: real time    0.3124
    SETDIJ:  cpu time    0.0220: real time    0.0422
     EDDAV:  cpu time   95.6285: real time   95.7838
       DOS:  cpu time    0.0200: real time    0.0199
    --------------------------------------------
      LOOP:  cpu time   95.9794: real time   96.1609

 eigenvalue-minimisations  :  9288
 total energy-change (2. order) :-0.1071761E+03  (-0.2466149E+04)
 number of electron     128.0000000 magnetization 
 augmentation part      128.0000000 magnetization 

 Free energy of the ion-electron system (eV)
  ---------------------------------------------------
  alpha Z        PSCENC =        15.37669868
  Ewald energy   TEWEN  =      -938.97936713
  -Hartree energ DENC   =        -4.01922712
  -exchange      EXHF   =         0.00000000
  -V(xc)+E(xc)   XCENC  =      -550.45903897
  PAW double counting   =       980.81479540     -269.34109362
  entropy T*S    EENTRO =        -0.00656833
  eigenvalues    EBANDS =       -18.97317716
  atomic energy  EATOM  =       678.41091065
  Solvation  Ediel_sol  =         0.00000000
  ---------------------------------------------------
  free energy    TOTEN  =      -107.17606760 eV

  energy without entropy =     -107.16949928  energy(sigma->0) =     -107.17387816


--------------------------------------------------------------------------------------------------------




----------------------------------------- Iteration    1(   2)  ---------------------------------------


     EDDAV:  cpu time  107.0607: real time  107.1506
       DOS:  cpu time    0.0250: real time    0.0258
    --------------------------------------------
      LOOP:  cpu time  107.0877: real time  107.1786

 eigenvalue-minimisations  : 10767
 total energy-change (2. order) :-0.1226279E+03  (-0.1118243E+03)
 number of electron     128.0000000 magnetization 
 augmentation part      128.0000000 magnetization 

 Free energy of the ion-electron system (eV)
  ---------------------------------------------------
  alpha Z        PSCENC =        15.37669868
  Ewald energy   TEWEN  =      -938.97936713
  -Hartree energ DENC   =        -4.01922712
  -exchange      EXHF   =         0.00000000
  -V(xc)+E(xc)   XCENC  =      -550.45903897
  PAW double counting   =       980.81479540     -269.34109362
  entropy T*S    EENTRO =        -0.00952669
  eigenvalues    EBANDS =      -141.59814914
  atomic energy  EATOM  =       678.41091065
  Solvation  Ediel_sol  =         0.00000000
  ---------------------------------------------------
  free energy    TOTEN  =      -229.80399796 eV

  energy without entropy =     -229.79447126  energy(sigma->0) =     -229.80082239


--------------------------------------------------------------------------------------------------------




----------------------------------------- Iteration    1(   3)  ---------------------------------------


     EDDAV:  cpu time  115.6094: real time  115.6995
       DOS:  cpu time    0.0280: real time    0.0281
    --------------------------------------------
      LOOP:  cpu time  115.6394: real time  115.7288

 eigenvalue-minimisations  : 11872
 total energy-change (2. order) :-0.8353106E+01  (-0.7729601E+01)
 number of electron     128.0000000 magnetization 
 augmentation part      128.0000000 magnetization 

 Free energy of the ion-electron system (eV)
  ---------------------------------------------------
  alpha Z        PSCENC =        15.37669868
  Ewald energy   TEWEN  =      -938.97936713
  -Hartree energ DENC   =        -4.01922712
  -exchange      EXHF   =         0.00000000
  -V(xc)+E(xc)   XCENC  =      -550.45903897
  PAW double counting   =       980.81479540     -269.34109362
  entropy T*S    EENTRO =        -0.00684168
  eigenvalues    EBANDS =      -149.95394042
  atomic energy  EATOM  =       678.41091065
  Solvation  Ediel_sol  =         0.00000000
  ---------------------------------------------------
  free energy    TOTEN  =      -238.15710421 eV

  energy without entropy =     -238.15026253  energy(sigma->0) =     -238.15482365


--------------------------------------------------------------------------------------------------------




----------------------------------------- Iteration    1(   4)  ---------------------------------------


     EDDAV:  cpu time  106.4288: real time  106.5175
       DOS:  cpu time    0.0280: real time    0.0280
    --------------------------------------------
      LOOP:  cpu time  106.4578: real time  106.5466

 eigenvalue-minimisations  : 10672
 total energy-change (2. order) :-0.2515196E+00  (-0.2490690E+00)
 number of electron     128.0000000 magnetization 
 augmentation part      128.0000000 magnetization 

 Free energy of the ion-electron system (eV)
  ---------------------------------------------------
  alpha Z        PSCENC =        15.37669868
  Ewald energy   TEWEN  =      -938.97936713
  -Hartree energ DENC   =        -4.01922712
  -exchange      EXHF   =         0.00000000
  -V(xc)+E(xc)   XCENC  =      -550.45903897
  PAW double counting   =       980.81479540     -269.34109362
  entropy T*S    EENTRO =        -0.00686816
  eigenvalues    EBANDS =      -150.20543354
  atomic energy  EATOM  =       678.41091065
  Solvation  Ediel_sol  =         0.00000000
  ---------------------------------------------------
  free energy    TOTEN  =      -238.40862381 eV

  energy without entropy =     -238.40175566  energy(sigma->0) =     -238.40633443


--------------------------------------------------------------------------------------------------------




----------------------------------------- Iteration    1(   5)  ---------------------------------------


     EDDAV:  cpu time  109.2074: real time  109.2917
       DOS:  cpu time    0.0280: real time    0.0284
    CHARGE:  cpu time    4.1344: real time    4.1375
    MIXING:  cpu time    0.0120: real time    0.0172
    --------------------------------------------
      LOOP:  cpu time  113.3828: real time  113.4762

 eigenvalue-minimisations  : 11064
 total energy-change (2. order) :-0.5530524E-02  (-0.5526891E-02)
 number of electron     128.0000000 magnetization 
 augmentation part        0.9489098 magnetization 

 Broyden mixing:
  rms(total) = 0.36034E+00    rms(broyden)= 0.36034E+00
  rms(prec ) = 0.84507E+00
  weight for this iteration     100.00

 Free energy of the ion-electron system (eV)
  ---------------------------------------------------
  alpha Z        PSCENC =        15.37669868
  Ewald energy   TEWEN  =      -938.97936713
  -Hartree energ DENC   =        -4.01922712
  -exchange      EXHF   =         0.00000000
  -V(xc)+E(xc)   XCENC  =      -550.45903897
  PAW double counting   =       980.81479540     -269.34109362
  entropy T*S    EENTRO =        -0.00686324
  eigenvalues    EBANDS =      -150.21096898
  atomic energy  EATOM  =       678.41091065
  Solvation  Ediel_sol  =         0.00000000
  ---------------------------------------------------
  free energy    TOTEN  =      -238.41415434 eV

  energy without entropy =     -238.40729109  energy(sigma->0) =     -238.41186659


--------------------------------------------------------------------------------------------------------




----------------------------------------- Iteration    1(   6)  ---------------------------------------


    POTLOK:  cpu time    0.3080: real time    0.3080
    SETDIJ:  cpu time    0.0150: real time    0.0152
     EDDAV:  cpu time  104.8211: real time  104.8906
       DOS:  cpu time    0.0280: real time    0.0287
    CHARGE:  cpu time    4.1314: real time    4.1324
    MIXING:  cpu time    0.0080: real time    0.0098
    --------------------------------------------
      LOOP:  cpu time  109.3124: real time  109.3855

 eigenvalue-minimisations  : 10504
 total energy-change (2. order) : 0.1530691E+01  (-0.2021018E+00)
 number of electron     128.0000000 magnetization 
 augmentation part        0.9393720 magnetization 

 Broyden mixing:
  rms(total) = 0.19550E+00    rms(broyden)= 0.19549E+00
  rms(prec ) = 0.52634E+00
  weight for this iteration     100.00

 eigenvalues of (default mixing * dielectric matrix)
  average eigenvalue GAMMA=   1.2660
  1.2660

 Free energy of the ion-electron system (eV)
  ---------------------------------------------------
  alpha Z        PSCENC =        15.37669868
  Ewald energy   TEWEN  =      -938.97936713
  -Hartree energ DENC   =        -6.65090142
  -exchange      EXHF   =         0.00000000
  -V(xc)+E(xc)   XCENC  =      -549.33416512
  PAW double counting   =      1042.94982670     -331.77362426
  entropy T*S    EENTRO =        -0.02164064
  eigenvalues    EBANDS =      -146.86120049
  atomic energy  EATOM  =       678.41091065
  Solvation  Ediel_sol  =         0.00000000
  ---------------------------------------------------
  free energy    TOTEN  =      -236.88346303 eV

  energy without entropy =     -236.86182239  energy(sigma->0) =     -236.87624948


--------------------------------------------------------------------------------------------------------




----------------------------------------- Iteration    1(   7)  ---------------------------------------


    POTLOK:  cpu time    0.3070: real time    0.3072
    SETDIJ:  cpu time    0.0160: real time    0.0152
     EDDAV:  cpu time  104.1572: real time  104.2598
       DOS:  cpu time    0.0290: real time    0.0288
    CHARGE:  cpu time    4.1734: real time    4.1747
    MIXING:  cpu time    0.0090: real time    0.0082
    --------------------------------------------
      LOOP:  cpu time  108.6915: real time  108.7947

 eigenvalue-minimisations  : 10415
 total energy-change (2. order) : 0.3312561E+00  (-0.1064974E+00)
 number of electron     128.0000000 magnetization 
 augmentation part        0.9409164 magnetization 

 Broyden mixing:
  rms(total) = 0.11611E+00    rms(broyden)= 0.11611E+00
  rms(prec ) = 0.21465E+00
  weight for this iteration     100.00

 eigenvalues of (default mixing * dielectric matrix)
  average eigenvalue GAMMA=   1.2045
  1.8424  0.5666

 Free energy of the ion-electron system (eV)
  ---------------------------------------------------
  alpha Z        PSCENC =        15.37669868
  Ewald energy   TEWEN  =      -938.97936713
  -Hartree energ DENC   =        -6.92777285
  -exchange      EXHF   =         0.00000000
  -V(xc)+E(xc)   XCENC  =      -548.83268583
  PAW double counting   =      1069.21522989     -358.17737698
  entropy T*S    EENTRO =        -0.02417547
  eigenvalues    EBANDS =      -146.61366791
  atomic energy  EATOM  =       678.41091065
  Solvation  Ediel_sol  =         0.00000000
  ---------------------------------------------------
  free energy    TOTEN  =      -236.55220695 eV

  energy without entropy =     -236.52803148  energy(sigma->0) =     -236.54414846


--------------------------------------------------------------------------------------------------------




----------------------------------------- Iteration    1(   8)  ---------------------------------------


    POTLOK:  cpu time    0.3070: real time    0.3074
    SETDIJ:  cpu time    0.0160: real time    0.0152
     EDDAV:  cpu time  102.2445: real time  102.3169
       DOS:  cpu time    0.0290: real time    0.0288
    CHARGE:  cpu time    4.1864: real time    4.1898
    MIXING:  cpu time    0.0090: real time    0.0091
    --------------------------------------------
      LOOP:  cpu time  106.7918: real time  106.8681

 eigenvalue-minimisations  : 10160
 total energy-change (2. order) : 0.8663894E-01  (-0.4689060E-01)
 number of electron     128.0000000 magnetization 
 augmentation part        0.9447007 magnetization 

 Broyden mixing:
  rms(total) = 0.51127E-01    rms(broyden)= 0.51127E-01
  rms(prec ) = 0.71297E-01
  weight for this iteration     100.00

 eigenvalues of (default mixing * dielectric matrix)
  average eigenvalue GAMMA=   1.2700
  0.5381  1.2402  2.0317

 Free energy of the ion-electron system (eV)
  ---------------------------------------------------
  alpha Z        PSCENC =        15.37669868
  Ewald energy   TEWEN  =      -938.97936713
  -Hartree energ DENC   =        -7.87797595
  -exchange      EXHF   =         0.00000000
  -V(xc)+E(xc)   XCENC  =      -548.08987093
  PAW double counting   =      1107.33139009     -396.50436180
  entropy T*S    EENTRO =        -0.02738952
  eigenvalues    EBANDS =      -146.10560210
  atomic energy  EATOM  =       678.41091065
  Solvation  Ediel_sol  =         0.00000000
  ---------------------------------------------------
  free energy    TOTEN  =      -236.46556801 eV

  energy without entropy =     -236.43817849  energy(sigma->0) =     -236.45643817


--------------------------------------------------------------------------------------------------------




----------------------------------------- Iteration    1(   9)  ---------------------------------------


    POTLOK:  cpu time    0.3090: real time    0.3087
    SETDIJ:  cpu time    0.0160: real time    0.0152
     EDDAV:  cpu time  109.7353: real time  109.8384
       DOS:  cpu time    0.0290: real time    0.0289
    CHARGE:  cpu time    4.1794: real time    4.1811
    MIXING:  cpu time    0.0090: real time    0.0090
    --------------------------------------------
      LOOP:  cpu time  114.2786: real time  114.3823

 eigenvalue-minimisations  : 11152
 total energy-change (2. order) : 0.7420598E-02  (-0.6096806E-02)
 number of electron     128.0000000 magnetization 
 augmentation part        0.9470408 magnetization 

 Broyden mixing:
  rms(total) = 0.24931E-01    rms(broyden)= 0.24931E-01
  rms(prec ) = 0.36521E-01
  weight for this iteration     100.00

 eigenvalues of (default mixing * dielectric matrix)
  average eigenvalue GAMMA=   1.3682
  2.5508  0.5349  1.3021  1.0851

 Free energy of the ion-electron system (eV)
  ---------------------------------------------------
  alpha Z        PSCENC =        15.37669868
  Ewald energy   TEWEN  =      -938.97936713
  -Hartree energ DENC   =        -8.14444587
  -exchange      EXHF   =         0.00000000
  -V(xc)+E(xc)   XCENC  =      -547.65251856
  PAW double counting   =      1129.32871469     -418.61400594
  entropy T*S    EENTRO =        -0.02740957
  eigenvalues    EBANDS =      -146.15672435
  atomic energy  EATOM  =       678.41091065
  Solvation  Ediel_sol  =         0.00000000
  ---------------------------------------------------
  free energy    TOTEN  =      -236.45814741 eV

  energy without entropy =     -236.43073784  energy(sigma->0) =     -236.44901089


--------------------------------------------------------------------------------------------------------




----------------------------------------- Iteration    1(  10)  ---------------------------------------


    POTLOK:  cpu time    0.3080: real time    0.3075
    SETDIJ:  cpu time    0.0150: real time    0.0152
     EDDAV:  cpu time  105.1190: real time  105.1924
       DOS:  cpu time    0.0290: real time    0.0286
    CHARGE:  cpu time    4.1954: real time    4.1974
    MIXING:  cpu time    0.0100: real time    0.0090
    --------------------------------------------
      LOOP:  cpu time  109.6773: real time  109.7519

 eigenvalue-minimisations  : 10544
 total energy-change (2. order) : 0.1693179E-02  (-0.5326667E-03)
 number of electron     128.0000000 magnetization 
 augmentation part        0.9476920 magnetization 

 Broyden mixing:
  rms(total) = 0.12387E-01    rms(broyden)= 0.12387E-01
  rms(prec ) = 0.22492E-01
  weight for this iteration     100.00

 eigenvalues of (default mixing * dielectric matrix)
  average eigenvalue GAMMA=   1.3061
  2.7380  1.2790  1.2790  0.5358  0.6985

 Free energy of the ion-electron system (eV)
  ---------------------------------------------------
  alpha Z        PSCENC =        15.37669868
  Ewald energy   TEWEN  =      -938.97936713
  -Hartree energ DENC   =        -8.26801675
  -exchange      EXHF   =         0.00000000
  -V(xc)+E(xc)   XCENC  =      -547.41844943
  PAW double counting   =      1140.43518009     -429.77269809
  entropy T*S    EENTRO =        -0.02748119
  eigenvalues    EBANDS =      -146.21323106
  atomic energy  EATOM  =       678.41091065
  Solvation  Ediel_sol  =         0.00000000
  ---------------------------------------------------
  free energy    TOTEN  =      -236.45645423 eV

  energy without entropy =     -236.42897304  energy(sigma->0) =     -236.44729384


--------------------------------------------------------------------------------------------------------




----------------------------------------- Iteration    1(  11)  ---------------------------------------


    POTLOK:  cpu time    0.3070: real time    0.3070
    SETDIJ:  cpu time    0.0160: real time    0.0152
     EDDAV:  cpu time  103.6552: real time  103.7379
       DOS:  cpu time    0.0290: real time    0.0289
    CHARGE:  cpu time    4.2064: real time    4.2076
    MIXING:  cpu time    0.0090: real time    0.0087
    --------------------------------------------
      LOOP:  cpu time  108.2225: real time  108.3070

 eigenvalue-minimisations  : 10360
 total energy-change (2. order) : 0.5305156E-03  (-0.1595824E-03)
 number of electron     128.0000000 magnetization 
 augmentation part        0.9480969 magnetization 

 Broyden mixing:
  rms(total) = 0.39855E-02    rms(broyden)= 0.39855E-02
  rms(prec ) = 0.57120E-02
  weight for this iteration     100.00

 eigenvalues of (default mixing * dielectric matrix)
  average eigenvalue GAMMA=   1.2999
  2.8331  1.5964  1.2685  1.0316  0.5420  0.5274

 Free energy of the ion-electron system (eV)
  ---------------------------------------------------
  alpha Z        PSCENC =        15.37669868
  Ewald energy   TEWEN  =      -938.97936713
  -Hartree energ DENC   =        -8.34823865
  -exchange      EXHF   =         0.00000000
  -V(xc)+E(xc)   XCENC  =      -547.26150693
  PAW double counting   =      1147.33376672     -436.70153690
  entropy T*S    EENTRO =        -0.02748430
  eigenvalues    EBANDS =      -146.25916585
  atomic energy  EATOM  =       678.41091065
  Solvation  Ediel_sol  =         0.00000000
  ---------------------------------------------------
  free energy    TOTEN  =      -236.45592372 eV

  energy without entropy =     -236.42843942  energy(sigma->0) =     -236.44676228


--------------------------------------------------------------------------------------------------------




----------------------------------------- Iteration    1(  12)  ---------------------------------------


    POTLOK:  cpu time    0.3070: real time    0.3076
    SETDIJ:  cpu time    0.0160: real time    0.0152
     EDDAV:  cpu time  101.9785: real time  102.0649
       DOS:  cpu time    0.0280: real time    0.0284
    CHARGE:  cpu time    4.2024: real time    4.2058
    MIXING:  cpu time    0.0100: real time    0.0097
    --------------------------------------------
      LOOP:  cpu time  106.5418: real time  106.6324

 eigenvalue-minimisations  : 10136
 total energy-change (2. order) : 0.2149483E-04  (-0.3613179E-04)
 number of electron     128.0000000 magnetization 
 augmentation part        0.9483891 magnetization 

 Broyden mixing:
  rms(total) = 0.14760E-02    rms(broyden)= 0.14760E-02
  rms(prec ) = 0.23177E-02
  weight for this iteration     100.00

 eigenvalues of (default mixing * dielectric matrix)
  average eigenvalue GAMMA=   1.3792
  2.8898  2.2349  1.3337  1.1435  0.9872  0.5412  0.5240

 Free energy of the ion-electron system (eV)
  ---------------------------------------------------
  alpha Z        PSCENC =        15.37669868
  Ewald energy   TEWEN  =      -938.97936713
  -Hartree energ DENC   =        -8.36135978
  -exchange      EXHF   =         0.00000000
  -V(xc)+E(xc)   XCENC  =      -547.21340477
  PAW double counting   =      1148.61058840     -437.98050061
  entropy T*S    EENTRO =        -0.02744783
  eigenvalues    EBANDS =      -146.29201984
  atomic energy  EATOM  =       678.41091065
  Solvation  Ediel_sol  =         0.00000000
  ---------------------------------------------------
  free energy    TOTEN  =      -236.45590222 eV

  energy without entropy =     -236.42845440  energy(sigma->0) =     -236.44675295


--------------------------------------------------------------------------------------------------------




----------------------------------------- Iteration    1(  13)  ---------------------------------------


    POTLOK:  cpu time    0.3080: real time    0.3080
    SETDIJ:  cpu time    0.0160: real time    0.0152
     EDDAV:  cpu time   95.8284: real time   95.9000
       DOS:  cpu time    0.0290: real time    0.0290
    CHARGE:  cpu time    4.2234: real time    4.2268
    MIXING:  cpu time    0.0090: real time    0.0096
    --------------------------------------------
      LOOP:  cpu time  100.4157: real time  100.4895

 eigenvalue-minimisations  :  9336
 total energy-change (2. order) : 0.1907413E-04  (-0.2827554E-05)
 number of electron     128.0000000 magnetization 
 augmentation part        0.9484556 magnetization 

 Broyden mixing:
  rms(total) = 0.55871E-03    rms(broyden)= 0.55871E-03
  rms(prec ) = 0.13022E-02
  weight for this iteration     100.00

 eigenvalues of (default mixing * dielectric matrix)
  average eigenvalue GAMMA=   1.3270
  2.9150  2.2361  1.3780  1.0962  1.0643  0.8600  0.5419  0.5248

 Free energy of the ion-electron system (eV)
  ---------------------------------------------------
  alpha Z        PSCENC =        15.37669868
  Ewald energy   TEWEN  =      -938.97936713
  -Hartree energ DENC   =        -8.36071932
  -exchange      EXHF   =         0.00000000
  -V(xc)+E(xc)   XCENC  =      -547.20417755
  PAW double counting   =      1148.47853110     -437.84526736
  entropy T*S    EENTRO =        -0.02743202
  eigenvalues    EBANDS =      -146.30506020
  atomic energy  EATOM  =       678.41091065
  Solvation  Ediel_sol  =         0.00000000
  ---------------------------------------------------
  free energy    TOTEN  =      -236.45588315 eV

  energy without entropy =     -236.42845113  energy(sigma->0) =     -236.44673914


--------------------------------------------------------------------------------------------------------




----------------------------------------- Iteration    1(  14)  ---------------------------------------


    POTLOK:  cpu time    0.3070: real time    0.3077
    SETDIJ:  cpu time    0.0160: real time    0.0153
     EDDAV:  cpu time   67.9387: real time   67.9928
       DOS:  cpu time    0.0290: real time    0.0289
    --------------------------------------------
      LOOP:  cpu time   68.2916: real time   68.3454

 eigenvalue-minimisations  :  5640
 total energy-change (2. order) : 0.3530017E-05  (-0.9578978E-06)
 number of electron     128.0000000 magnetization 
 augmentation part        0.9484556 magnetization 

 Free energy of the ion-electron system (eV)
  ---------------------------------------------------
  alpha Z        PSCENC =        15.37669868
  Ewald energy   TEWEN  =      -938.97936713
  -Hartree energ DENC   =        -8.36114607
  -exchange      EXHF   =         0.00000000
  -V(xc)+E(xc)   XCENC  =      -547.20042557
  PAW double counting   =      1148.43058225     -437.79601132
  entropy T*S    EENTRO =        -0.02742649
  eigenvalues    EBANDS =      -146.30969462
  atomic energy  EATOM  =       678.41091065
  Solvation  Ediel_sol  =         0.00000000
  ---------------------------------------------------
  free energy    TOTEN  =      -236.45587962 eV

  energy without entropy =     -236.42845312  energy(sigma->0) =     -236.44673745


--------------------------------------------------------------------------------------------------------




 average (electrostatic) potential at core
  the test charge radii are     0.9748
  (the norm of the test charge is              1.0000)
       1 -30.8302       2 -30.9373       3 -30.9021       4 -30.9545       5 -30.8758
       6 -30.8341       7 -30.8225       8 -30.7806       9 -30.7827      10 -30.8864
      11 -30.9698      12 -30.9094      13 -30.8124      14 -30.8423      15 -30.9274
      16 -30.9491      17 -30.9970      18 -30.9320      19 -30.7835      20 -30.8266
      21 -30.7247      22 -30.8194      23 -30.9312      24 -30.9376      25 -30.9011
      26 -30.8878      27 -30.9478      28 -30.7897      29 -31.0405      30 -30.9605
      31 -30.8564      32 -30.7728      33 -30.8643      34 -31.0238      35 -30.9825
      36 -30.7549      37 -30.8930      38 -30.9744      39 -30.7530      40 -30.7597
      41 -30.9357      42 -31.0340      43 -31.0121      44 -31.0177      45 -30.8330
      46 -30.7638      47 -30.7775      48 -30.9804      49 -31.1367      50 -31.0164
      51 -30.9371      52 -30.9942      53 -30.8700      54 -30.7603      55 -30.9826
      56 -31.0170      57 -31.0869      58 -30.9035      59 -30.8768      60 -30.8245
      61 -30.7491      62 -30.9740      63 -30.8873      64 -30.9402      65 -30.8454
      66 -30.9163      67 -30.8421      68 -30.9641      69 -30.8801      70 -31.0180
      71 -30.8921      72 -31.0657      73 -30.9661      74 -30.8867      75 -30.9516
      76 -30.9630      77 -30.7803      78 -30.8883      79 -31.0742      80 -30.9125
      81 -31.0302      82 -30.9570      83 -30.9830      84 -30.9351      85 -30.9431
      86 -30.8876      87 -30.8631      88 -30.8348      89 -31.0826      90 -30.9401
      91 -30.7970      92 -30.8095      93 -30.8857      94 -30.8983      95 -30.8486
      96 -31.0334      97 -30.9189      98 -30.8454      99 -30.8259     100 -30.9052
     101 -30.8731     102 -30.8239     103 -31.0394     104 -31.0011     105 -30.8855
     106 -30.8604     107 -30.9697     108 -30.9628     109 -30.8730     110 -30.9749
     111 -31.0602     112 -30.8133     113 -30.8392     114 -31.0104     115 -30.9053
     116 -30.8709     117 -30.9003     118 -30.9546     119 -30.8687     120 -30.8986
     121 -31.1229     122 -31.0036     123 -30.9435     124 -31.0193     125 -30.9028
     126 -30.9863     127 -30.8516     128 -30.8515
 
 
 
 E-fermi :   0.2059     XC(G=0):  -6.6004     alpha+bet : -6.7349


 k-point     1 :       0.0000    0.0000    0.0000
  band No.  band energies     occupation 
      1      -3.2573      2.00000
      2      -2.7078      2.00000
      3      -2.7058      2.00000
      4      -2.6826      2.00000
      5      -2.6787      2.00000
      6      -2.6653      2.00000
      7      -2.6429      2.00000
      8      -2.1786      2.00000
      9      -2.1478      2.00000
     10      -2.1411      2.00000
     11      -2.1265      2.00000
     12      -2.1242      2.00000
     13      -2.1086      2.00000
     14      -2.1070      2.00000
     15      -2.0788      2.00000
     16      -2.0727      2.00000
     17      -2.0599      2.00000
     18      -2.0489      2.00000
     19      -2.0415      2.00000
     20      -1.5667      2.00000
     21      -1.5584      2.00000
     22      -1.5408      2.00000
     23      -1.5272      2.00000
     24      -1.5215      2.00000
     25      -1.5144      2.00000
     26      -1.5019      2.00000
     27      -1.4686      2.00000
     28      -0.9665      2.00000
     29      -0.9579      2.00000
     30      -0.9356      2.00000
     31      -0.9274      2.00000
     32      -0.9101      2.00000
     33      -0.8973      2.00000
     34      -0.5118      2.00000
     35      -0.5054      2.00000
     36      -0.5013      2.00000
     37      -0.4811      2.00000
     38      -0.4748      2.00000
     39      -0.4667      2.00000
     40      -0.4585      2.00000
     41      -0.4408      2.00000
     42      -0.4358      2.00000
     43      -0.4211      2.00000
     44      -0.4185      2.00000
     45      -0.4065      2.00000
     46      -0.3987      2.00000
     47      -0.3961      2.00000
     48      -0.3803      2.00000
     49      -0.3733      2.00000
     50      -0.3596      2.00000
     51      -0.3515      2.00000
     52      -0.3448      2.00000
     53      -0.3334      2.00000
     54      -0.3262      2.00000
     55      -0.3216      2.00000
     56      -0.3021      2.00000
     57      -0.2943      2.00000
     58      -0.0025      2.01209
     59       0.0125      2.01971
     60       0.0288      2.03114
     61       0.0317      2.03349
     62       0.0554      2.05483
     63       0.0724      2.06770
     64       0.0926      2.06799
     65       0.1072      2.04751
     66       0.1231      1.99358
     67       0.1334      1.93678
     68       0.1462      1.83733
     69       0.1647      1.63595
[...]
   -.899E-01 0.237E+00 0.551E+00   0.107E+00 -.160E+00 -.521E+00   0.433E-01 -.177E+00 -.638E-01   0.216E-04 0.253E-03 0.784E-04
   -.120E+01 0.215E+00 0.300E+00   0.971E+00 -.855E-01 -.317E+00   0.354E+00 -.853E-01 -.171E+00   0.644E-04 0.178E-03 -.178E-03
   -.452E+00 0.438E+00 -.546E+00   0.468E+00 -.408E+00 0.457E+00   0.137E+00 -.126E+00 0.257E+00   0.135E-03 0.255E-03 -.261E-03
   -.110E+01 -.780E-01 -.744E+00   0.952E+00 0.314E-02 0.657E+00   0.308E+00 0.700E-01 0.165E+00   0.764E-04 0.189E-03 -.132E-03
   0.117E+01 0.768E+00 -.211E+00   -.109E+01 -.699E+00 0.511E-01   -.408E+00 -.293E+00 0.287E-01   -.174E-04 0.150E-03 0.516E-04
   0.950E+00 0.188E+00 -.679E+00   -.796E+00 -.181E+00 0.747E+00   -.257E+00 -.203E+00 0.205E+00   0.395E-04 0.324E-04 0.108E-03
   -.938E+00 -.551E+00 0.708E+00   0.716E+00 0.477E+00 -.651E+00   0.447E+00 0.168E+00 -.303E+00   0.110E-03 -.450E-04 0.256E-03
   0.630E+00 0.354E+00 -.450E+00   -.549E+00 -.312E+00 0.382E+00   -.169E+00 -.204E+00 0.480E+00   0.583E-04 0.118E-03 0.152E-03
   0.116E+00 0.487E+00 0.558E+00   0.256E-01 -.432E+00 -.577E+00   -.163E+00 -.835E-01 -.977E-01   0.547E-04 -.693E-04 -.957E-05
   -.199E+00 -.303E+00 0.106E+01   0.314E+00 0.224E+00 -.992E+00   -.541E-01 0.207E+00 -.264E+00   0.177E-03 0.949E-04 -.124E-03
   -.115E+00 0.147E-01 -.145E+00   0.623E-01 -.595E-01 0.187E+00   -.753E-01 -.107E+00 0.632E-01   0.101E-03 -.162E-04 -.186E-03
   -.239E+00 0.641E+00 -.685E+00   0.220E+00 -.648E+00 0.566E+00   0.194E+00 -.444E+00 -.323E-01   0.510E-04 0.108E-03 -.204E-03
   0.310E+00 -.100E+01 -.725E+00   -.303E+00 0.847E+00 0.691E+00   -.785E-01 0.441E+00 0.520E-01   0.279E-04 0.432E-04 -.721E-04
   0.892E-01 0.412E+00 0.413E+00   0.391E-01 -.332E+00 -.222E+00   0.177E-01 -.407E-01 -.326E+00   0.780E-04 -.118E-03 0.470E-04
   -.672E+00 0.957E+00 0.104E+01   0.631E+00 -.787E+00 -.830E+00   0.185E+00 -.329E+00 -.344E+00   0.113E-03 -.249E-03 0.182E-03
   0.146E+00 0.659E+00 0.528E+00   -.350E-01 -.593E+00 -.512E+00   -.219E+00 -.191E+00 -.434E-01   0.132E-03 -.157E-03 0.182E-03
   -.208E+00 -.409E-01 -.912E-01   0.143E+00 -.472E-01 -.813E-01   -.722E-01 0.460E-01 0.991E-01   0.354E-04 -.211E-03 -.219E-04
   -.586E+00 0.289E+00 0.141E-01   0.661E+00 -.302E+00 -.674E-01   0.134E+00 -.104E+00 0.731E-01   0.147E-03 -.138E-03 -.169E-03
   -.377E+00 -.293E+00 -.649E+00   0.345E+00 0.259E+00 0.636E+00   0.889E-01 0.984E-01 0.199E+00   0.175E-03 -.262E-03 -.129E-03
   -.380E+00 -.762E-01 -.625E+00   0.273E+00 0.984E-01 0.689E+00   -.385E-01 0.666E-01 -.405E-02   0.139E-03 -.129E-03 -.140E-03
   -.828E+00 0.977E-01 -.687E+00   0.765E+00 0.348E-01 0.732E+00   0.306E+00 -.139E-01 0.929E-01   0.916E-04 -.174E-03 -.918E-04
   0.786E+00 0.105E+00 0.661E+00   -.600E+00 -.151E+00 -.510E+00   -.238E+00 0.483E-01 -.373E+00   -.414E-05 -.115E-03 0.366E-04
   0.824E+00 -.112E+00 -.211E+00   -.729E+00 0.123E+00 0.200E+00   -.232E+00 0.664E-01 0.106E+00   -.106E-04 -.258E-04 0.123E-03
   -.398E+00 -.773E-01 0.270E+00   0.392E+00 0.916E-02 -.255E+00   0.182E+00 0.571E-01 0.582E-01   0.437E-04 -.199E-03 0.204E-03
   0.661E+00 -.332E+00 0.963E+00   -.603E+00 0.305E+00 -.786E+00   -.251E+00 0.125E+00 -.349E+00   0.189E-04 -.239E-04 0.153E-03
   -.281E+00 0.363E+00 -.719E-01   0.321E+00 -.317E+00 0.161E+00   0.297E+00 -.227E+00 0.637E-01   0.919E-04 -.883E-04 -.421E-04
   0.467E+00 -.628E+00 -.783E+00   -.533E+00 0.467E+00 0.721E+00   0.587E-01 0.272E+00 0.257E+00   -.856E-04 -.276E-04 -.183E-03
   0.138E+01 -.151E+00 -.841E+00   -.135E+01 0.320E+00 0.943E+00   -.585E+00 -.641E-02 0.302E+00   0.400E-04 -.177E-03 -.208E-03
   0.531E+00 -.805E-01 0.131E-01   -.553E+00 0.939E-01 0.104E+00   0.152E+00 -.803E-01 -.500E-01   -.544E-04 -.318E-04 -.768E-04
   0.104E+01 0.825E+00 0.164E+00   -.969E+00 -.652E+00 -.200E+00   -.232E+00 -.286E+00 0.314E-04   -.395E-04 0.701E-04 0.835E-04
   -.126E+00 -.327E+00 -.493E+00   -.577E-02 0.265E+00 0.395E+00   0.114E+00 0.749E-01 0.176E+00   0.289E-04 0.236E-03 0.172E-03
   0.482E-01 0.745E+00 -.585E+00   -.671E-01 -.677E+00 0.521E+00   0.156E+00 -.446E+00 0.314E+00   -.138E-04 0.200E-03 0.164E-03
   0.853E+00 -.260E-01 0.898E+00   -.866E+00 0.443E-01 -.860E+00   -.274E+00 0.251E-01 -.316E+00   0.175E-04 0.220E-03 0.921E-04
   0.692E+00 -.406E+00 -.115E+00   -.655E+00 0.360E+00 -.156E-01   -.213E+00 0.197E+00 0.982E-01   0.421E-04 0.150E-03 -.847E-04
   -.181E+00 0.657E+00 -.587E+00   0.236E+00 -.652E+00 0.372E+00   0.351E+00 -.350E+00 0.199E+00   -.201E-04 0.239E-03 -.226E-03
   0.611E+00 0.570E+00 0.211E+00   -.581E+00 -.456E+00 -.185E+00   -.247E+00 -.167E+00 -.270E+00   0.703E-04 0.113E-03 -.189E-03
   -.531E+00 0.938E-01 0.571E+00   0.444E+00 -.174E-01 -.447E+00   0.367E+00 0.827E-01 -.254E+00   0.681E-04 0.182E-03 -.524E-04
   0.215E+00 -.997E+00 -.102E+01   -.136E+00 0.872E+00 0.887E+00   0.146E-01 0.215E+00 0.355E+00   -.478E-05 0.101E-03 0.195E-03
   0.117E+01 -.978E+00 0.794E+00   -.990E+00 0.767E+00 -.787E+00   -.309E+00 0.294E+00 -.357E+00   -.514E-04 -.519E-04 0.232E-03
   -.865E-01 -.464E+00 -.248E+00   0.221E-01 0.356E+00 0.184E+00   0.123E+00 0.968E-01 0.256E+00   -.151E-04 0.206E-03 0.155E-03
   0.746E+00 -.198E+00 0.121E+00   -.562E+00 0.193E+00 -.110E+00   -.165E+00 -.739E-01 0.129E+00   0.406E-04 -.587E-04 0.324E-04
   0.853E-01 -.375E+00 0.802E+00   -.145E+00 0.356E+00 -.633E+00   0.158E-01 0.254E+00 -.324E+00   -.224E-04 0.851E-04 -.493E-05
   -.874E-02 -.383E+00 0.153E+00   -.853E-01 0.265E+00 -.121E+00   0.683E-01 0.135E+00 -.137E+00   -.214E-04 -.494E-04 -.206E-03
   -.332E-01 -.292E-01 0.235E+00   0.406E-01 0.776E-01 -.138E+00   0.388E-01 0.105E+00 -.145E+00   0.576E-04 0.114E-03 -.312E-03
   -.380E-01 0.848E-01 -.309E+00   -.759E-01 0.288E-01 0.230E+00   0.135E-01 -.186E-01 -.355E-01   0.321E-04 -.692E-04 -.121E-03
   0.805E+00 0.328E+00 -.135E+01   -.789E+00 -.339E+00 0.117E+01   -.203E+00 -.225E+00 0.476E+00   -.784E-04 -.121E-03 0.109E-03
   0.463E+00 0.148E+01 -.150E+00   -.385E+00 -.118E+01 0.316E-02   -.438E-01 -.510E+00 0.727E-01   -.241E-04 -.201E-03 0.218E-03
   -.870E+00 0.343E+00 0.142E+01   0.838E+00 -.301E+00 -.125E+01   0.312E+00 -.187E-01 -.385E+00   -.431E-04 -.201E-03 0.862E-04
   -.165E+00 0.317E+00 0.254E+00   0.270E-01 -.262E+00 -.327E+00   0.814E-01 0.173E-01 -.535E-01   0.675E-04 -.135E-03 0.689E-04
   -.527E+00 -.399E-01 -.235E+00   0.403E+00 0.607E-02 0.156E+00   0.171E+00 0.371E-01 0.263E+00   -.722E-05 -.133E-03 0.362E-04
   0.178E+00 0.676E+00 0.101E+01   -.130E-01 -.767E+00 -.997E+00   0.672E-01 -.230E+00 -.614E+00   -.103E-03 -.194E-03 -.175E-03
   0.480E+00 -.109E+00 -.246E+00   -.454E+00 0.199E+00 0.286E+00   -.170E+00 0.624E-02 0.109E+00   -.505E-04 -.811E-04 -.300E-03
   0.624E+00 -.184E-01 -.185E+00   -.523E+00 -.350E-03 0.687E-01   0.113E+00 0.775E-01 -.235E+00   -.584E-04 -.113E-03 -.879E-04
 -----------------------------------------------------------------------------------------------
   0.233E-01 -.102E+00 0.179E+00   -.273E-13 0.244E-14 0.133E-14   -.231E-01 0.102E+00 -.179E+00   -.133E-03 -.229E-04 -.314E-03
 
 
 POSITION                                       TOTAL-FORCE (eV/Angst)
 -----------------------------------------------------------------------------------
     13.97580     13.96620      0.16236         0.077722      0.084688     -0.036006
      1.72076      1.92180      1.58322         0.152210     -0.124479      0.178614
     13.89470     14.06620      3.84626         0.227245      0.165845     -0.203159
      2.01638      1.90547      5.42860        -0.270100      0.293599      0.077223
     13.72730      0.50395      6.74248         0.209859     -0.254748      0.103985
      1.67738      1.72317      8.47604         0.160048      0.143713      0.093728
      0.52546     13.99190     10.38400        -0.338565      0.025636      0.103444
      1.70594      1.57894     12.25280        -0.389272      0.417614      0.399209
     13.76970      3.13725      0.22219        -0.125189      0.089820     -0.225725
      1.79154      5.05346      1.73893        -0.180196     -0.015626     -0.150083
     13.71980      3.33991      3.08248         0.136406      0.085312      0.406928
      1.76777      4.92274      5.41282        -0.022814     -0.168711     -0.189618
     13.74410      3.55354      7.01577         0.078700     -0.100396      0.114634
      1.72852      4.92353      8.49237         0.116799      0.048426     -0.530647
      0.38851      3.66077     10.26290        -0.537346     -0.278471      0.186586
      1.48460      4.55467     12.62590         0.133798      0.303232      0.066292
     13.88200      6.98864     13.85970         0.240305     -0.053748     -0.022047
      1.33487      8.35361      1.63586         0.062829     -0.080597      0.020054
      0.06072      6.77137      3.92475        -0.138511     -0.114431     -0.277799
      1.45662      8.58150      5.26556         0.180128      0.254127      0.043035
     13.98390      6.95172      7.08442         0.006320     -0.126082      0.011326
      1.91330      8.53803      8.55223        -0.078386      0.041181      0.163161
      0.30256      6.69107     10.48720        -0.085509      0.088657      0.144469
      1.78334      9.14524     11.95140        -0.066326     -0.315941      0.212126
      0.36213     10.65820     13.91080        -0.231131     -0.125683      0.376565
      1.71840     12.66280      2.05037         0.070883      0.015491     -0.089749
      0.63721     10.31410      3.30628        -0.221435      0.408592      0.196127
      2.11917     12.81970      5.32709        -0.342719     -0.012848      0.168296
      0.29523     10.65610      6.91748        -0.022885      0.083375      0.116009
      2.07616     12.88670      8.24626        -0.129030     -0.126166      0.116558
      0.24639     10.93830     10.37520        -0.122743      0.009477     -0.131008
      1.84604     12.45910     12.47710        -0.010026     -0.249517     -0.067162
      3.30429      0.08117     14.02940         0.334944     -0.009269      0.278299
      5.47315      1.39118      1.98916         0.075396      0.141580     -0.118091
      3.35996      0.54356      3.69152         0.286379     -0.216895     -0.233006
      5.63091      1.97661      5.23403         0.083718     -0.081690     -0.210873
      4.05970      0.49105      7.00865        -0.095536     -0.077932      0.227367
      5.75237      2.47725      9.59021        -0.018405     -0.452876     -0.110144
      3.41630      0.18762     11.10740         0.362923     -0.188843     -0.681378
      5.36889      1.70794     12.33080        -0.070363      0.156102      0.141745
      3.87020      3.53458      0.05860        -0.175073     -0.293247      0.244648
      5.47749      5.70604      1.63168        -0.021562     -0.062134     -0.169039
      4.05576      3.82003      3.48474        -0.265203     -0.227847     -0.191287
      5.39465      4.98860      5.49404         0.267095      0.421905     -0.097219
      4.14671      3.35097      7.25178        -0.348027      0.076807      0.144273
      5.49282      5.45576      8.75075        -0.085575     -0.051133      0.134032
      3.40441      3.37188     10.64180        -0.078622     -0.003305      0.003682
      5.18850      5.09637     12.47190        -0.037343      0.349040     -0.430124
      3.09890      7.04669     13.73890         0.183308     -0.040115      0.011115
      5.64956      8.73093      2.08131        -0.369018      0.047074      0.043841
      3.10528      6.87608      3.35966         0.300907      0.176695      0.106219
      4.95664      8.67481      5.22680         0.223053      0.019408     -0.111517
      3.16396      6.96272      6.52514         0.270582     -0.260342      0.308406
      4.99663      8.47605      8.45101        -0.132532      0.090745      0.036608
      3.19693      6.20153     10.14210         0.090667      0.293387      0.356781
      4.59157      8.49672     11.22030         0.092790      0.024610      0.426486
      3.36871     10.31000      0.93908        -0.104688     -0.049898     -0.341570
      5.11092     12.25800      2.03758         0.075087      0.216753      0.004168
      3.39954     10.87450      3.92671         0.071094     -0.367883     -0.119533
      5.15452     12.50280      5.44892         0.116503      0.204872     -0.137943
      3.55370     10.68310      7.01409        -0.135324     -0.138251      0.013332
      5.04752     12.48700      9.29424        -0.129653     -0.033192     -0.412993
      3.16621     10.59600     10.14840         0.038408      0.309807     -0.188324
      4.90556     11.91060     12.27800        -0.094585     -0.025420      0.085822
      6.68080     13.83690     13.89500        -0.051107     -0.171387      0.091717
      8.72310      1.30747      1.51710        -0.076394      0.188126      0.069782
      7.43433     13.79280      3.77705        -0.341345      0.077830      0.063510
      8.57969      1.95614      5.19761         0.132412      0.104499     -0.009463
      6.86047      0.14829      7.40983         0.165219      0.038694     -0.002660
      9.07765      1.52071      9.06829        -0.169890      0.052271      0.163535
      6.68657     13.80570     10.81810         0.217532      0.067572     -0.153627
      8.57116      1.19526     12.24800         0.304267      0.254766      0.000492
      7.01562      3.46725     13.77550         0.311111     -0.052263      0.293163
      8.93489      5.42533      1.44110        -0.166591      0.257601     -0.234353
      7.40278      3.55609      3.01477        -0.212422      0.074608      0.088622
      8.70503      5.29068      5.44215         0.060272     -0.099122     -0.034332
      7.24475      3.39973      7.49272         0.126150      0.044474     -0.188434
      8.76595      5.68614      8.61576         0.152239     -0.095381      0.167527
      7.42302      4.23482     10.81400         0.164707     -0.004704      0.078192
      9.33791      5.72024     12.70570        -0.326473     -0.223201     -0.131021
      6.93498      7.47062     13.40160        -0.103554     -0.196184      0.273513
      8.57542      8.92796      1.70392         0.224903      0.094426     -0.246601
      7.42834      7.04093      3.36234        -0.089179     -0.162409      0.412436
      8.60265      8.89711      5.69188        -0.020855     -0.028756     -0.116763
      6.92596      7.08700      7.10235         0.060445      0.127515     -0.192991
      9.08528      9.03067      8.63888        -0.127798     -0.152077      0.104670
      7.11704      7.56629     10.51900         0.175046     -0.449896     -0.151733
      9.09058      8.88410     12.20390        -0.071258      0.287294      0.018161
      6.46436     10.32950     13.99280         0.146138      0.039214     -0.134769
      8.35256     12.20290      1.60999         0.144244     -0.159589     -0.137531
      6.96516     10.71000      3.86959        -0.108115     -0.124947     -0.027211
      8.72426     12.24300      5.85087        -0.136863     -0.042378     -0.073462
      6.47842     10.73660      7.21779         0.210041     -0.118042      0.019575
      8.74824     12.21750      8.75323         0.057564      0.063700      0.185965
      6.86763     10.32990     10.24550        -0.145331      0.088753      0.059570
      8.42290     11.86620     12.08660         0.243262      0.118468      0.138626
     10.54660     13.70820      0.07665        -0.052540      0.002068     -0.221847
     12.14100      1.28094      1.82075        -0.137086      0.077399      0.095107
     10.24110     13.82290      3.57764         0.175384     -0.011200      0.073403
     12.03190      1.90641      5.09627        -0.193366      0.098688     -0.172084
     10.22500      0.31161      6.78091         0.336839     -0.181269      0.152658
     12.36250      1.67582      8.86296        -0.007388      0.110400      0.193939
     10.92840     13.68170     10.44850        -0.552976      0.163268      0.403620
     12.35210      1.60370     12.08940         0.129619     -0.066964      0.066645
     10.69170      3.30219      0.13872        -0.159296     -0.113020     -0.036444
     12.35840      5.50357      1.60658        -0.017367      0.012861      0.078308
     10.42690      4.01402      3.18003         0.137289     -0.377823      0.250676
     12.37090      5.15794      5.42886        -0.287391      0.043665     -0.277916
     10.64670      3.39328      7.26980        -0.175726      0.151159     -0.031959
     11.87250      5.57913      8.95428         0.405827     -0.345503     -0.016616
     10.56160      3.54040     10.89170        -0.217223     -0.053476     -0.244057
     12.19830      5.05364     12.50820         0.279046      0.159283     -0.130615
     10.83730      7.50441     14.03520         0.094062      0.090626      0.219321
     12.52970      8.79120      2.27880        -0.130120      0.083847     -0.349874
     10.41460      7.14058      3.44088         0.058577     -0.010591      0.192726
     12.37740      9.02300      5.10952         0.018839     -0.078401      0.139870
     10.72620      7.05690      6.93237        -0.043868      0.235259     -0.154113
     12.67470      8.77411      8.90141        -0.025775      0.017517     -0.105639
     10.62010      7.14147     10.71110         0.046213      0.153220     -0.047655
     12.77150      8.83939     12.12940        -0.100360      0.094932     -0.114399
     10.96090     10.70060     13.76830        -0.186994     -0.235961      0.290311
     12.30560     12.22530      2.08931         0.033987     -0.211236     -0.074399
      9.94927     10.60150      3.87417         0.279016      0.023249     -0.216389
     12.35710     12.22240      5.35374        -0.056760      0.072671     -0.125812
     10.84480     10.60850      7.05706         0.047301      0.003150      0.184598
     12.50060     12.73520      8.84745         0.232010     -0.321847     -0.602429
     10.99690     10.55510     10.39360        -0.143446      0.096048      0.149125
     12.55170     12.37340     12.44400         0.212883      0.058653     -0.351319
 -----------------------------------------------------------------------------------
    total drift:                                0.000077      0.000010      0.000045


--------------------------------------------------------------------------------------------------------



  FREE ENERGIE OF THE ION-ELECTRON SYSTEM (eV)
  ---------------------------------------------------
  free  energy   TOTEN  =      -236.45587962 eV

  energy  without entropy=     -236.42845312  energy(sigma->0) =     -236.44673745
 


--------------------------------------------------------------------------------------------------------


    POTLOK:  cpu time    0.3270: real time    0.3280


--------------------------------------------------------------------------------------------------------


     LOOP+:  cpu time 1638.2909: real time 1639.7209
    4ORBIT:  cpu time    0.0000: real time    0.0000

 total amount of memory used by VASP on root node   269460. kBytes
========================================================================

   base      :      30000. kBytes
   nonl-proj :       9026. kBytes
   fftplans  :      14402. kBytes
   grid      :      20753. kBytes
   one-center:          9. kBytes
   wavefun   :     195270. kBytes
 
  
  
 General timing and accounting informations for this job:
 ========================================================
  
                  Total CPU time used (sec):     1660.656
                            User time (sec):     1656.852
                          System time (sec):        3.804
                         Elapsed time (sec):     1662.244
  
                   Maximum memory used (kb):      312376.
                   Average memory used (kb):           0.
  
                          Minor page faults:        44086
                          Major page faults:            0
                 Voluntary context switches:        38549
