 vasp.5.4.1 24Jun15 (build Apr 15 2016 23:17:53) complex                        
  
 executed on           IFC91_ompi date 2016.06.27  00:27:28
 running on   16 total cores
 distrk:  each k-point on   16 cores,    1 groups
 distr:  one band on NCORES_PER_BAND=  16 cores,    1 groups


--------------------------------------------------------------------------------------------------------


 INCAR:
 POTCAR:    PAW_PBE Ag 02Apr2005                  
 POTCAR:    PAW_PBE Pt 04Feb2005                  

 ----------------------------------------------------------------------------- 
|                                                                             |
|           W    W    AA    RRRRR   N    N  II  N    N   GGGG   !!!           |
|           W    W   A  A   R    R  NN   N  II  NN   N  G    G  !!!           |
|           W    W  A    A  R    R  N N  N  II  N N  N  G       !!!           |
|           W WW W  AAAAAA  RRRRR   N  N N  II  N  N N  G  GGG   !            |
|           WW  WW  A    A  R   R   N   NN  II  N   NN  G    G                |
|           W    W  A    A  R    R  N    N  II  N    N   GGGG   !!!           |
|                                                                             |
|      For optimal performance we recommend to set                            |
|        NCORE= 4 - approx SQRT( number of cores)                             |
|      NCORE specifies how many cores store one orbital (NPAR=cpu/NCORE).     |
|      This setting can  greatly improve the performance of VASP for DFT.     |
|      The default, NPAR=number of cores might be grossly inefficient         |
|      on modern multi-core architectures or massively parallel machines.     |
|      Do your own testing !!!!                                               |
|      Unfortunately you need to use the default for GW and RPA calculations. |
|      (for HF NCORE is supported but not extensively tested yet)             |
|                                                                             |
 ----------------------------------------------------------------------------- 

 POTCAR:    PAW_PBE Ag 02Apr2005                  
   VRHFIN =Ag : s1 d10                                                          
   LEXCH  = PE                                                                  
   EATOM  =  1037.2675 eV,   76.2370 Ry                                         
                                                                                
   TITEL  = PAW_PBE Ag 02Apr2005                                                
   LULTRA =        F    use ultrasoft PP ?                                      
   IUNSCR =        1    unscreen: 0-lin 1-nonlin 2-no                           
   RPACOR =    2.000    partial core radius                                     
   POMASS =  107.868; ZVAL   =   11.000    mass and valenz                      
   RCORE  =    2.500    outmost cutoff radius                                   
   RWIGS  =    2.840; RWIGS  =    1.503    wigner-seitz radius (au A)           
   ENMAX  =  249.844; ENMIN  =  187.383 eV                                      
   ICORE  =        3    local potential                                         
   LCOR   =        T    correct aug charges                                     
   LPAW   =        T    paw PP                                                  
   EAUG   =  412.496                                                            
   DEXC   =    0.000                                                            
   RMAX   =    2.560    core radius for proj-oper                               
   RAUG   =    1.300    factor for augmentation sphere                          
   RDEP   =    2.576    radius for radial grids                                 
   RDEPT  =    2.072    core radius for aug-charge                              
                                                                                
   Atomic configuration                                                         
   12 entries                                                                   
     n  l   j            E        occ.                                          
     1  0  0.50    -25324.9161   2.0000                                         
     2  0  0.50     -3728.5341   2.0000                                         
     2  1  1.50     -3344.0404   6.0000                                         
     3  0  0.50      -683.5581   2.0000                                         
     3  1  1.50      -557.3225   6.0000                                         
     3  2  2.50      -358.3853  10.0000                                         
     4  0  0.50       -95.0341   2.0000                                         
     4  1  1.50       -58.5511   6.0000                                         
     4  2  2.50        -7.4440  10.0000                                         
     5  0  0.50        -4.4045   1.0000                                         
     5  1  0.50        -1.3606   0.0000                                         
     4  3  2.50        -1.3606   0.0000                                         
   Description                                                                  
     l       E           TYP  RCUT    TYP  RCUT                                 
     2     -7.4439781     23  2.400                                             
     2     -8.8045607     23  2.400                                             
     0     -4.4044681     23  2.400                                             
     0      1.9520038     23  2.400                                             
     1     -1.3605826     23  2.500                                             
     1     27.2116520     23  2.500                                             
     3     -4.0817478     23  2.400                                             
  local pseudopotential read in
  partial core-charges read in
  partial kinetic energy density read in
  atomic valenz-charges read in
  non local Contribution for L=           2  read in
    real space projection operators read in
  non local Contribution for L=           2  read in
    real space projection operators read in
  non local Contribution for L=           0  read in
    real space projection operators read in
  non local Contribution for L=           0  read in
    real space projection operators read in
  non local Contribution for L=           1  read in
    real space projection operators read in
  non local Contribution for L=           1  read in
    real space projection operators read in
    PAW grid and wavefunctions read in
 
   number of l-projection  operators is LMAX  =           6
   number of lm-projection operators is LMMAX =          18
 
 POTCAR:    PAW_PBE Pt 04Feb2005                  
   VRHFIN =Pt: s1d9                                                             
   LEXCH  = PE                                                                  
   EATOM  =   729.1176 eV,   53.5886 Ry                                         
                                                                                
   TITEL  = PAW_PBE Pt 04Feb2005                                                
   LULTRA =        F    use ultrasoft PP ?                                      
   IUNSCR =        1    unscreen: 0-lin 1-nonlin 2-no                           
   RPACOR =    2.330    partial core radius                                     
   POMASS =  195.080; ZVAL   =   10.000    mass and valenz                      
   RCORE  =    2.600    outmost cutoff radius                                   
   RWIGS  =    2.750; RWIGS  =    1.455    wigner-seitz radius (au A)           
   ENMAX  =  230.283; ENMIN  =  172.712 eV                                      
   ICORE  =        3    local potential                                         
   LCOR   =        T    correct aug charges                                     
   LPAW   =        T    paw PP                                                  
   EAUG   =  358.966                                                            
   DEXC   =    0.000                                                            
   RMAX   =    2.658    core radius for proj-oper                               
   RAUG   =    1.300    factor for augmentation sphere                          
   RDEP   =    2.761    radius for radial grids                                 
   RDEPT  =    2.203    core radius for aug-charge                              
                                                                                
   Atomic configuration                                                         
   16 entries                                                                   
     n  l   j            E        occ.                                          
     1  0  0.50    -78401.1885   2.0000                                         
     2  0  0.50    -13770.7750   2.0000                                         
     2  1  1.50    -11931.0468   6.0000                                         
     3  0  0.50     -3234.7234   2.0000                                         
     3  1  1.50     -2699.2216   6.0000                                         
     3  2  2.50     -2119.5714  10.0000                                         
     4  0  0.50      -695.1528   2.0000                                         
     4  1  1.50      -519.6034   6.0000                                         
     4  2  2.50      -306.6786  10.0000                                         
     4  3  3.50       -70.1041  14.0000                                         
     5  0  0.50      -101.7747   2.0000                                         
     5  1  1.50       -55.9873   6.0000                                         
     5  2  2.50        -6.1423   9.0000                                         
     6  0  0.50        -5.6573   1.0000                                         
     6  1  1.50        -6.8029   0.0000                                         
     5  3  2.50        -1.3606   0.0000                                         
   Description                                                                  
     l       E           TYP  RCUT    TYP  RCUT                                 
     2     -6.1423404     23  2.500                                             
     2     -7.5029230     23  2.500                                             
     0     -5.6573207     23  2.500                                             
     0      0.7416693     23  2.500                                             
     1     -2.7211652     23  2.600                                             
     1     20.4087390     23  2.600                                             
     3     -1.3605826     23  2.500                                             
  local pseudopotential read in
  partial core-charges read in
  partial kinetic energy density read in
  atomic valenz-charges read in
  non local Contribution for L=           2  read in
    real space projection operators read in
  non local Contribution for L=           2  read in
    real space projection operators read in
  non local Contribution for L=           0  read in
    real space projection operators read in
  non local Contribution for L=           0  read in
    real space projection operators read in
  non local Contribution for L=           1  read in
    real space projection operators read in
  non local Contribution for L=           1  read in
    real space projection operators read in
    PAW grid and wavefunctions read in
 
   number of l-projection  operators is LMAX  =           6
   number of lm-projection operators is LMMAX =          18
 
  PAW_PBE Ag 02Apr2005                  :
 energy of atom  1       EATOM=-1037.2675
 kinetic energy error for atom=    0.0011 (will be added to EATOM!!)
  PAW_PBE Pt 04Feb2005                  :
 energy of atom  2       EATOM= -729.1176
 kinetic energy error for atom=    0.0010 (will be added to EATOM!!)
 
 
 POSCAR: Math det4                               
  positions in cartesian coordinates
  No initial velocities read in
 exchange correlation table for  LEXCH =        8
   RHO(1)=    0.500       N(1)  =     2000
   RHO(2)=  100.500       N(2)  =     4000
 


--------------------------------------------------------------------------------------------------------


 ion  position               nearest neighbor table
   1  0.000  0.000  0.000-   2 2.83   4 2.83   5 2.83   6 2.83  10 2.83  14 2.83  15 2.83  16 2.83
                             2 2.83   4 2.83   5 2.83  14 2.83
   2  0.000  0.250  0.500-   1 2.83   3 2.83   5 2.83   6 2.83   7 2.83   9 2.83  14 2.83  15 2.83
                             1 2.83   3 2.83   6 2.83  15 2.83
   3  0.000  0.500  0.000-   2 2.83   4 2.83   6 2.83   7 2.83   9 2.83  10 2.83  15 2.83  16 2.83
                             2 2.83   4 2.83   7 2.83   9 2.83
   4  0.000  0.750  0.500-   1 2.83   3 2.83   5 2.83   7 2.83   9 2.83  10 2.83  14 2.83  16 2.83
                             1 2.83   3 2.83  10 2.83  16 2.83
   5  0.250  0.000  0.500-   1 2.83   2 2.83   4 2.83   6 2.83   8 2.83  10 2.83  11 2.83  13 2.83
                             1 2.83   6 2.83   8 2.83  10 2.83
   6  0.250  0.250  0.000-   1 2.83   2 2.83   3 2.83   5 2.83   7 2.83   8 2.83  11 2.83  12 2.83
                             2 2.83   5 2.83   7 2.83  11 2.83
   7  0.250  0.500  0.500-   2 2.83   3 2.83   4 2.83   6 2.83  10 2.83  11 2.83  12 2.83  13 2.83
                             3 2.83   6 2.83  10 2.83  12 2.83
   8  0.500  0.000  0.000-   5 2.83   6 2.83  10 2.83  11 2.83  13 2.83  14 2.83  15 2.83  16 2.83
                             5 2.83  11 2.83  13 2.83  14 2.83
   9  0.750  0.500  0.500-   2 2.83   3 2.83   4 2.83  11 2.83  12 2.83  13 2.83  15 2.83  16 2.83
                             3 2.83  12 2.83  15 2.83  16 2.83
  10  0.250  0.750  0.000-   1 2.83   3 2.83   4 2.83   5 2.83   7 2.83   8 2.83  12 2.83  13 2.83
                             4 2.83   5 2.83   7 2.83  13 2.83
  11  0.500  0.250  0.500-   5 2.83   6 2.83   7 2.83   8 2.83   9 2.83  12 2.83  14 2.83  15 2.83
                             6 2.83   8 2.83  12 2.83  15 2.83
  12  0.500  0.500  0.000-   6 2.83   7 2.83   9 2.83  10 2.83  11 2.83  13 2.83  15 2.83  16 2.83
                             7 2.83   9 2.83  11 2.83  13 2.83
  13  0.500  0.750  0.500-   5 2.83   7 2.83   8 2.83   9 2.83  10 2.83  12 2.83  14 2.83  16 2.83
                             8 2.83  10 2.83  12 2.83  16 2.83
  14  0.750  0.000  0.500-   1 2.83   2 2.83   4 2.83   8 2.83  11 2.83  13 2.83  15 2.83  16 2.83
                             1 2.83   8 2.83  15 2.83  16 2.83
  15  0.750  0.250  0.000-   1 2.83   2 2.83   3 2.83   8 2.83   9 2.83  11 2.83  12 2.83  14 2.83
                             2 2.83   9 2.83  11 2.83  14 2.83
  16  0.750  0.750  0.000-   1 2.83   3 2.83   4 2.83   8 2.83   9 2.83  12 2.83  13 2.83  14 2.83
                             4 2.83   9 2.83  13 2.83  14 2.83
 

IMPORTANT INFORMATION: All symmetrisations will be switched off!
NOSYMM: (Re-)initialisation of all symmetry stuff for point group C_1.

 
 
 KPOINTS: K-Points                                

Automatic generation of k-mesh.
Space group operators:
 irot       det(A)        alpha          n_x          n_y          n_z        tau_x        tau_y        tau_z
    1     1.000000     0.000000     1.000000     0.000000     0.000000     0.000000     0.000000     0.000000
 
 Subroutine IBZKPT returns following result:
 ===========================================
 
 Found    516 irreducible k-points:
 
 Following reciprocal coordinates:
            Coordinates               Weight
  0.000000  0.000000  0.000000      1.000000
  0.125000  0.000000  0.000000      2.000000
  0.250000  0.000000  0.000000      2.000000
  0.375000  0.000000  0.000000      2.000000
  0.500000  0.000000  0.000000      1.000000
  0.000000  0.125000  0.000000      2.000000
  0.125000  0.125000  0.000000      2.000000
  0.250000  0.125000  0.000000      2.000000
  0.375000  0.125000  0.000000      2.000000
  0.500000  0.125000  0.000000      2.000000
 -0.375000  0.125000  0.000000      2.000000
 -0.250000  0.125000  0.000000      2.000000
 -0.125000  0.125000  0.000000      2.000000
  0.000000  0.250000  0.000000      2.000000
  0.125000  0.250000  0.000000      2.000000
  0.250000  0.250000  0.000000      2.000000
  0.375000  0.250000  0.000000      2.000000
  0.500000  0.250000  0.000000      2.000000
 -0.375000  0.250000  0.000000      2.000000
 -0.250000  0.250000  0.000000      2.000000
 -0.125000  0.250000  0.000000      2.000000
  0.000000  0.375000  0.000000      2.000000
  0.125000  0.375000  0.000000      2.000000
  0.250000  0.375000  0.000000      2.000000
  0.375000  0.375000  0.000000      2.000000
  0.500000  0.375000  0.000000      2.000000
 -0.375000  0.375000  0.000000      2.000000
 -0.250000  0.375000  0.000000      2.000000
 -0.125000  0.375000  0.000000      2.000000
  0.000000  0.500000  0.000000      1.000000
  0.125000  0.500000  0.000000      2.000000
  0.250000  0.500000  0.000000      2.000000
  0.375000  0.500000  0.000000      2.000000
  0.500000  0.500000  0.000000      1.000000
  0.000000  0.000000  0.062500      2.000000
  0.125000  0.000000  0.062500      2.000000
  0.250000  0.000000  0.062500      2.000000
  0.375000  0.000000  0.062500      2.000000
  0.500000  0.000000  0.062500      2.000000
 -0.375000  0.000000  0.062500      2.000000
 -0.250000  0.000000  0.062500      2.000000
 -0.125000  0.000000  0.062500      2.000000
  0.000000  0.125000  0.062500      2.000000
  0.125000  0.125000  0.062500      2.000000
  0.250000  0.125000  0.062500      2.000000
  0.375000  0.125000  0.062500      2.000000
  0.500000  0.125000  0.062500      2.000000
 -0.375000  0.125000  0.062500      2.000000
 -0.250000  0.125000  0.062500      2.000000
 -0.125000  0.125000  0.062500      2.000000
  0.000000  0.250000  0.062500      2.000000
  0.125000  0.250000  0.062500      2.000000
  0.250000  0.250000  0.062500      2.000000
  0.375000  0.250000  0.062500      2.000000
  0.500000  0.250000  0.062500      2.000000
 -0.375000  0.250000  0.062500      2.000000
 -0.250000  0.250000  0.062500      2.000000
 -0.125000  0.250000  0.062500      2.000000
  0.000000  0.375000  0.062500      2.000000
  0.125000  0.375000  0.062500      2.000000
  0.250000  0.375000  0.062500      2.000000
  0.375000  0.375000  0.062500      2.000000
  0.500000  0.375000  0.062500      2.000000
 -0.375000  0.375000  0.062500      2.000000
 -0.250000  0.375000  0.062500      2.000000
 -0.125000  0.375000  0.062500      2.000000
  0.000000  0.500000  0.062500      2.000000
  0.125000  0.500000  0.062500      2.000000
  0.250000  0.500000  0.062500      2.000000
  0.375000  0.500000  0.062500      2.000000
  0.500000  0.500000  0.062500      2.000000
 -0.375000  0.500000  0.062500      2.000000
 -0.250000  0.500000  0.062500      2.000000
 -0.125000  0.500000  0.062500      2.000000
  0.000000 -0.375000  0.062500      2.000000
  0.125000 -0.375000  0.062500      2.000000
  0.250000 -0.375000  0.062500      2.000000
  0.375000 -0.375000  0.062500      2.000000
  0.500000 -0.375000  0.062500      2.000000
 -0.375000 -0.375000  0.062500      2.000000
 -0.250000 -0.375000  0.062500      2.000000
 -0.125000 -0.375000  0.062500      2.000000
  0.000000 -0.250000  0.062500      2.000000
  0.125000 -0.250000  0.062500      2.000000
  0.250000 -0.250000  0.062500      2.000000
  0.375000 -0.250000  0.062500      2.000000
  0.500000 -0.250000  0.062500      2.000000
 -0.375000 -0.250000  0.062500      2.000000
 -0.250000 -0.250000  0.062500      2.000000
 -0.125000 -0.250000  0.062500      2.000000
  0.000000 -0.125000  0.062500      2.000000
  0.125000 -0.125000  0.062500      2.000000
  0.250000 -0.125000  0.062500      2.000000
  0.375000 -0.125000  0.062500      2.000000
  0.500000 -0.125000  0.062500      2.000000
 -0.375000 -0.125000  0.062500      2.000000
 -0.250000 -0.125000  0.062500      2.000000
 -0.125000 -0.125000  0.062500      2.000000
  0.000000  0.000000  0.125000      2.000000
  0.125000  0.000000  0.125000      2.000000
  0.250000  0.000000  0.125000      2.000000
  0.375000  0.000000  0.125000      2.000000
  0.500000  0.000000  0.125000      2.000000
 -0.375000  0.000000  0.125000      2.000000
 -0.250000  0.000000  0.125000      2.000000
 -0.125000  0.000000  0.125000      2.000000
  0.000000  0.125000  0.125000      2.000000
  0.125000  0.125000  0.125000      2.000000
  0.250000  0.125000  0.125000      2.000000
  0.375000  0.125000  0.125000      2.000000
  0.500000  0.125000  0.125000      2.000000
 -0.375000  0.125000  0.125000      2.000000
 -0.250000  0.125000  0.125000      2.000000
 -0.125000  0.125000  0.125000      2.000000
  0.000000  0.250000  0.125000      2.000000
  0.125000  0.250000  0.125000      2.000000
  0.250000  0.250000  0.125000      2.000000
  0.375000  0.250000  0.125000      2.000000
  0.500000  0.250000  0.125000      2.000000
 -0.375000  0.250000  0.125000      2.000000
 -0.250000  0.250000  0.125000      2.000000
 -0.125000  0.250000  0.125000      2.000000
  0.000000  0.375000  0.125000      2.000000
  0.125000  0.375000  0.125000      2.000000
  0.250000  0.375000  0.125000      2.000000
  0.375000  0.375000  0.125000      2.000000
  0.500000  0.375000  0.125000      2.000000
 -0.375000  0.375000  0.125000      2.000000
 -0.250000  0.375000  0.125000      2.000000
 -0.125000  0.375000  0.125000      2.000000
  0.000000  0.500000  0.125000      2.000000
  0.125000  0.500000  0.125000      2.000000
  0.250000  0.500000  0.125000      2.000000
  0.375000  0.500000  0.125000      2.000000
  0.500000  0.500000  0.125000      2.000000
 -0.375000  0.500000  0.125000      2.000000
 -0.250000  0.500000  0.125000      2.000000
 -0.125000  0.500000  0.125000      2.000000
  0.000000 -0.375000  0.125000      2.000000
  0.125000 -0.375000  0.125000      2.000000
  0.250000 -0.375000  0.125000      2.000000
  0.375000 -0.375000  0.125000      2.000000
  0.500000 -0.375000  0.125000      2.000000
 -0.375000 -0.375000  0.125000      2.000000
 -0.250000 -0.375000  0.125000      2.000000
 -0.125000 -0.375000  0.125000      2.000000
  0.000000 -0.250000  0.125000      2.000000
  0.125000 -0.250000  0.125000      2.000000
  0.250000 -0.250000  0.125000      2.000000
  0.375000 -0.250000  0.125000      2.000000
  0.500000 -0.250000  0.125000      2.000000
 -0.375000 -0.250000  0.125000      2.000000
 -0.250000 -0.250000  0.125000      2.000000
 -0.125000 -0.250000  0.125000      2.000000
  0.000000 -0.125000  0.125000      2.000000
  0.125000 -0.125000  0.125000      2.000000
  0.250000 -0.125000  0.125000      2.000000
  0.375000 -0.125000  0.125000      2.000000
  0.500000 -0.125000  0.125000      2.000000
 -0.375000 -0.125000  0.125000      2.000000
 -0.250000 -0.125000  0.125000      2.000000
 -0.125000 -0.125000  0.125000      2.000000
  0.000000  0.000000  0.187500      2.000000
  0.125000  0.000000  0.187500      2.000000
  0.250000  0.000000  0.187500      2.000000
  0.375000  0.000000  0.187500      2.000000
  0.500000  0.000000  0.187500      2.000000
 -0.375000  0.000000  0.187500      2.000000
 -0.250000  0.000000  0.187500      2.000000
 -0.125000  0.000000  0.187500      2.000000
  0.000000  0.125000  0.187500      2.000000
  0.125000  0.125000  0.187500      2.000000
  0.250000  0.125000  0.187500      2.000000
  0.375000  0.125000  0.187500      2.000000
  0.500000  0.125000  0.187500      2.000000
 -0.375000  0.125000  0.187500      2.000000
 -0.250000  0.125000  0.187500      2.000000
 -0.125000  0.125000  0.187500      2.000000
  0.000000  0.250000  0.187500      2.000000
  0.125000  0.250000  0.187500      2.000000
  0.250000  0.250000  0.187500      2.000000
  0.375000  0.250000  0.187500      2.000000
  0.500000  0.250000  0.187500      2.000000
 -0.375000  0.250000  0.187500      2.000000
 -0.250000  0.250000  0.187500      2.000000
 -0.125000  0.250000  0.187500      2.000000
  0.000000  0.375000  0.187500      2.000000
  0.125000  0.375000  0.187500      2.000000
  0.250000  0.375000  0.187500      2.000000
  0.375000  0.375000  0.187500      2.000000
  0.500000  0.375000  0.187500      2.000000
 -0.375000  0.375000  0.187500      2.000000
 -0.250000  0.375000  0.187500      2.000000
 -0.125000  0.375000  0.187500      2.000000
  0.000000  0.500000  0.187500      2.000000
  0.125000  0.500000  0.187500      2.000000
  0.250000  0.500000  0.187500      2.000000
  0.375000  0.500000  0.187500      2.000000
  0.500000  0.500000  0.187500      2.000000
 -0.375000  0.500000  0.187500      2.000000
 -0.250000  0.500000  0.187500      2.000000
 -0.125000  0.500000  0.187500      2.000000
  0.000000 -0.375000  0.187500      2.000000
  0.125000 -0.375000  0.187500      2.000000
  0.250000 -0.375000  0.187500      2.000000
  0.375000 -0.375000  0.187500      2.000000
  0.500000 -0.375000  0.187500      2.000000
 -0.375000 -0.375000  0.187500      2.000000
 -0.250000 -0.375000  0.187500      2.000000
 -0.125000 -0.375000  0.187500      2.000000
  0.000000 -0.250000  0.187500      2.000000
  0.125000 -0.250000  0.187500      2.000000
  0.250000 -0.250000  0.187500      2.000000
  0.375000 -0.250000  0.187500      2.000000
  0.500000 -0.250000  0.187500      2.000000
 -0.375000 -0.250000  0.187500      2.000000
 -0.250000 -0.250000  0.187500      2.000000
 -0.125000 -0.250000  0.187500      2.000000
  0.000000 -0.125000  0.187500      2.000000
  0.125000 -0.125000  0.187500      2.000000
  0.250000 -0.125000  0.187500      2.000000
  0.375000 -0.125000  0.187500      2.000000
  0.500000 -0.125000  0.187500      2.000000
 -0.375000 -0.125000  0.187500      2.000000
 -0.250000 -0.125000  0.187500      2.000000
 -0.125000 -0.125000  0.187500      2.000000
  0.000000  0.000000  0.250000      2.000000
  0.125000  0.000000  0.250000      2.000000
  0.250000  0.000000  0.250000      2.000000
  0.375000  0.000000  0.250000      2.000000
  0.500000  0.000000  0.250000      2.000000
 -0.375000  0.000000  0.250000      2.000000
 -0.250000  0.000000  0.250000      2.000000
 -0.125000  0.000000  0.250000      2.000000
  0.000000  0.125000  0.250000      2.000000
  0.125000  0.125000  0.250000      2.000000
  0.250000  0.125000  0.250000      2.000000
  0.375000  0.125000  0.250000      2.000000
  0.500000  0.125000  0.250000      2.000000
 -0.375000  0.125000  0.250000      2.000000
 -0.250000  0.125000  0.250000      2.000000
 -0.125000  0.125000  0.250000      2.000000
  0.000000  0.250000  0.250000      2.000000
  0.125000  0.250000  0.250000      2.000000
  0.250000  0.250000  0.250000      2.000000
  0.375000  0.250000  0.250000      2.000000
  0.500000  0.250000  0.250000      2.000000
 -0.375000  0.250000  0.250000      2.000000
 -0.250000  0.250000  0.250000      2.000000
 -0.125000  0.250000  0.250000      2.000000
  0.000000  0.375000  0.250000      2.000000
  0.125000  0.375000  0.250000      2.000000
  0.250000  0.375000  0.250000      2.000000
  0.375000  0.375000  0.250000      2.000000
  0.500000  0.375000  0.250000      2.000000
 -0.375000  0.375000  0.250000      2.000000
 -0.250000  0.375000  0.250000      2.000000
 -0.125000  0.375000  0.250000      2.000000
  0.000000  0.500000  0.250000      2.000000
  0.125000  0.500000  0.250000      2.000000
  0.250000  0.500000  0.250000      2.000000
  0.375000  0.500000  0.250000      2.000000
  0.500000  0.500000  0.250000      2.000000
 -0.375000  0.500000  0.250000      2.000000
 -0.250000  0.500000  0.250000      2.000000
 -0.125000  0.500000  0.250000      2.000000
  0.000000 -0.375000  0.250000      2.000000
  0.125000 -0.375000  0.250000      2.000000
  0.250000 -0.375000  0.250000      2.000000
  0.375000 -0.375000  0.250000      2.000000
  0.500000 -0.375000  0.250000      2.000000
 -0.375000 -0.375000  0.250000      2.000000
 -0.250000 -0.375000  0.250000      2.000000
 -0.125000 -0.375000  0.250000      2.000000
  0.000000 -0.250000  0.250000      2.000000
  0.125000 -0.250000  0.250000      2.000000
  0.250000 -0.250000  0.250000      2.000000
  0.375000 -0.250000  0.250000      2.000000
  0.500000 -0.250000  0.250000      2.000000
 -0.375000 -0.250000  0.250000      2.000000
 -0.250000 -0.250000  0.250000      2.000000
 -0.125000 -0.250000  0.250000      2.000000
  0.000000 -0.125000  0.250000      2.000000
  0.125000 -0.125000  0.250000      2.000000
  0.250000 -0.125000  0.250000      2.000000
  0.375000 -0.125000  0.250000      2.000000
  0.500000 -0.125000  0.250000      2.000000
 -0.375000 -0.125000  0.250000      2.000000
 -0.250000 -0.125000  0.250000      2.000000
 -0.125000 -0.125000  0.250000      2.000000
  0.000000  0.000000  0.312500      2.000000
  0.125000  0.000000  0.312500      2.000000
  0.250000  0.000000  0.312500      2.000000
  0.375000  0.000000  0.312500      2.000000
  0.500000  0.000000  0.312500      2.000000
 -0.375000  0.000000  0.312500      2.000000
 -0.250000  0.000000  0.312500      2.000000
 -0.125000  0.000000  0.312500      2.000000
  0.000000  0.125000  0.312500      2.000000
  0.125000  0.125000  0.312500      2.000000
  0.250000  0.125000  0.312500      2.000000
  0.375000  0.125000  0.312500      2.000000
  0.500000  0.125000  0.312500      2.000000
 -0.375000  0.125000  0.312500      2.000000
 -0.250000  0.125000  0.312500      2.000000
 -0.125000  0.125000  0.312500      2.000000
  0.000000  0.250000  0.312500      2.000000
  0.125000  0.250000  0.312500      2.000000
  0.250000  0.250000  0.312500      2.000000
  0.375000  0.250000  0.312500      2.000000
  0.500000  0.250000  0.312500      2.000000
 -0.375000  0.250000  0.312500      2.000000
 -0.250000  0.250000  0.312500      2.000000
 -0.125000  0.250000  0.312500      2.000000
  0.000000  0.375000  0.312500      2.000000
  0.125000  0.375000  0.312500      2.000000
  0.250000  0.375000  0.312500      2.000000
  0.375000  0.375000  0.312500      2.000000
  0.500000  0.375000  0.312500      2.000000
 -0.375000  0.375000  0.312500      2.000000
 -0.250000  0.375000  0.312500      2.000000
 -0.125000  0.375000  0.312500      2.000000
  0.000000  0.500000  0.312500      2.000000
  0.125000  0.500000  0.312500      2.000000
  0.250000  0.500000  0.312500      2.000000
  0.375000  0.500000  0.312500      2.000000
  0.500000  0.500000  0.312500      2.000000
 -0.375000  0.500000  0.312500      2.000000
 -0.250000  0.500000  0.312500      2.000000
 -0.125000  0.500000  0.312500      2.000000
  0.000000 -0.375000  0.312500      2.000000
  0.125000 -0.375000  0.312500      2.000000
  0.250000 -0.375000  0.312500      2.000000
  0.375000 -0.375000  0.312500      2.000000
  0.500000 -0.375000  0.312500      2.000000
 -0.375000 -0.375000  0.312500      2.000000
 -0.250000 -0.375000  0.312500      2.000000
 -0.125000 -0.375000  0.312500      2.000000
  0.000000 -0.250000  0.312500      2.000000
  0.125000 -0.250000  0.312500      2.000000
  0.250000 -0.250000  0.312500      2.000000
  0.375000 -0.250000  0.312500      2.000000
  0.500000 -0.250000  0.312500      2.000000
 -0.375000 -0.250000  0.312500      2.000000
 -0.250000 -0.250000  0.312500      2.000000
 -0.125000 -0.250000  0.312500      2.000000
  0.000000 -0.125000  0.312500      2.000000
  0.125000 -0.125000  0.312500      2.000000
  0.250000 -0.125000  0.312500      2.000000
  0.375000 -0.125000  0.312500      2.000000
  0.500000 -0.125000  0.312500      2.000000
 -0.375000 -0.125000  0.312500      2.000000
 -0.250000 -0.125000  0.312500      2.000000
 -0.125000 -0.125000  0.312500      2.000000
  0.000000  0.000000  0.375000      2.000000
  0.125000  0.000000  0.375000      2.000000
  0.250000  0.000000  0.375000      2.000000
  0.375000  0.000000  0.375000      2.000000
  0.500000  0.000000  0.375000      2.000000
 -0.375000  0.000000  0.375000      2.000000
 -0.250000  0.000000  0.375000      2.000000
 -0.125000  0.000000  0.375000      2.000000
  0.000000  0.125000  0.375000      2.000000
  0.125000  0.125000  0.375000      2.000000
  0.250000  0.125000  0.375000      2.000000
  0.375000  0.125000  0.375000      2.000000
  0.500000  0.125000  0.375000      2.000000
 -0.375000  0.125000  0.375000      2.000000
 -0.250000  0.125000  0.375000      2.000000
 -0.125000  0.125000  0.375000      2.000000
  0.000000  0.250000  0.375000      2.000000
  0.125000  0.250000  0.375000      2.000000
  0.250000  0.250000  0.375000      2.000000
  0.375000  0.250000  0.375000      2.000000
  0.500000  0.250000  0.375000      2.000000
 -0.375000  0.250000  0.375000      2.000000
 -0.250000  0.250000  0.375000      2.000000
 -0.125000  0.250000  0.375000      2.000000
  0.000000  0.375000  0.375000      2.000000
  0.125000  0.375000  0.375000      2.000000
  0.250000  0.375000  0.375000      2.000000
  0.375000  0.375000  0.375000      2.000000
  0.500000  0.375000  0.375000      2.000000
 -0.375000  0.375000  0.375000      2.000000
 -0.250000  0.375000  0.375000      2.000000
 -0.125000  0.375000  0.375000      2.000000
  0.000000  0.500000  0.375000      2.000000
  0.125000  0.500000  0.375000      2.000000
  0.250000  0.500000  0.375000      2.000000
  0.375000  0.500000  0.375000      2.000000
  0.500000  0.500000  0.375000      2.000000
 -0.375000  0.500000  0.375000      2.000000
 -0.250000  0.500000  0.375000      2.000000
 -0.125000  0.500000  0.375000      2.000000
  0.000000 -0.375000  0.375000      2.000000
  0.125000 -0.375000  0.375000      2.000000
  0.250000 -0.375000  0.375000      2.000000
  0.375000 -0.375000  0.375000      2.000000
  0.500000 -0.375000  0.375000      2.000000
 -0.375000 -0.375000  0.375000      2.000000
 -0.250000 -0.375000  0.375000      2.000000
 -0.125000 -0.375000  0.375000      2.000000
  0.000000 -0.250000  0.375000      2.000000
  0.125000 -0.250000  0.375000      2.000000
  0.250000 -0.250000  0.375000      2.000000
  0.375000 -0.250000  0.375000      2.000000
  0.500000 -0.250000  0.375000      2.000000
 -0.375000 -0.250000  0.375000      2.000000
 -0.250000 -0.250000  0.375000      2.000000
 -0.125000 -0.250000  0.375000      2.000000
  0.000000 -0.125000  0.375000      2.000000
  0.125000 -0.125000  0.375000      2.000000
  0.250000 -0.125000  0.375000      2.000000
  0.375000 -0.125000  0.375000      2.000000
  0.500000 -0.125000  0.375000      2.000000
 -0.375000 -0.125000  0.375000      2.000000
 -0.250000 -0.125000  0.375000      2.000000
 -0.125000 -0.125000  0.375000      2.000000
  0.000000  0.000000  0.437500      2.000000
  0.125000  0.000000  0.437500      2.000000
  0.250000  0.000000  0.437500      2.000000
  0.375000  0.000000  0.437500      2.000000
  0.500000  0.000000  0.437500      2.000000
 -0.375000  0.000000  0.437500      2.000000
 -0.250000  0.000000  0.437500      2.000000
 -0.125000  0.000000  0.437500      2.000000
  0.000000  0.125000  0.437500      2.000000
  0.125000  0.125000  0.437500      2.000000
  0.250000  0.125000  0.437500      2.000000
  0.375000  0.125000  0.437500      2.000000
  0.500000  0.125000  0.437500      2.000000
 -0.375000  0.125000  0.437500      2.000000
 -0.250000  0.125000  0.437500      2.000000
 -0.125000  0.125000  0.437500      2.000000
  0.000000  0.250000  0.437500      2.000000
  0.125000  0.250000  0.437500      2.000000
  0.250000  0.250000  0.437500      2.000000
  0.375000  0.250000  0.437500      2.000000
  0.500000  0.250000  0.437500      2.000000
 -0.375000  0.250000  0.437500      2.000000
 -0.250000  0.250000  0.437500      2.000000
 -0.125000  0.250000  0.437500      2.000000
  0.000000  0.375000  0.437500      2.000000
  0.125000  0.375000  0.437500      2.000000
  0.250000  0.375000  0.437500      2.000000
  0.375000  0.375000  0.437500      2.000000
  0.500000  0.375000  0.437500      2.000000
 -0.375000  0.375000  0.437500      2.000000
 -0.250000  0.375000  0.437500      2.000000
 -0.125000  0.375000  0.437500      2.000000
  0.000000  0.500000  0.437500      2.000000
  0.125000  0.500000  0.437500      2.000000
  0.250000  0.500000  0.437500      2.000000
  0.375000  0.500000  0.437500      2.000000
  0.500000  0.500000  0.437500      2.000000
 -0.375000  0.500000  0.437500      2.000000
 -0.250000  0.500000  0.437500      2.000000
 -0.125000  0.500000  0.437500      2.000000
  0.000000 -0.375000  0.437500      2.000000
  0.125000 -0.375000  0.437500      2.000000
  0.250000 -0.375000  0.437500      2.000000
  0.375000 -0.375000  0.437500      2.000000
  0.500000 -0.375000  0.437500      2.000000
 -0.375000 -0.375000  0.437500      2.000000
 -0.250000 -0.375000  0.437500      2.000000
 -0.125000 -0.375000  0.437500      2.000000
  0.000000 -0.250000  0.437500      2.000000
  0.125000 -0.250000  0.437500      2.000000
  0.250000 -0.250000  0.437500      2.000000
  0.375000 -0.250000  0.437500      2.000000
  0.500000 -0.250000  0.437500      2.000000
 -0.375000 -0.250000  0.437500      2.000000
 -0.250000 -0.250000  0.437500      2.000000
 -0.125000 -0.250000  0.437500      2.000000
  0.000000 -0.125000  0.437500      2.000000
  0.125000 -0.125000  0.437500      2.000000
  0.250000 -0.125000  0.437500      2.000000
  0.375000 -0.125000  0.437500      2.000000
  0.500000 -0.125000  0.437500      2.000000
 -0.375000 -0.125000  0.437500      2.000000
 -0.250000 -0.125000  0.437500      2.000000
 -0.125000 -0.125000  0.437500      2.000000
  0.000000  0.000000  0.500000      1.000000
  0.125000  0.000000  0.500000      2.000000
  0.250000  0.000000  0.500000      2.000000
  0.375000  0.000000  0.500000      2.000000
  0.500000  0.000000  0.500000      1.000000
  0.000000  0.125000  0.500000      2.000000
  0.125000  0.125000  0.500000      2.000000
  0.250000  0.125000  0.500000      2.000000
  0.375000  0.125000  0.500000      2.000000
  0.500000  0.125000  0.500000      2.000000
 -0.375000  0.125000  0.500000      2.000000
 -0.250000  0.125000  0.500000      2.000000
 -0.125000  0.125000  0.500000      2.000000
  0.000000  0.250000  0.500000      2.000000
  0.125000  0.250000  0.500000      2.000000
  0.250000  0.250000  0.500000      2.000000
  0.375000  0.250000  0.500000      2.000000
  0.500000  0.250000  0.500000      2.000000
 -0.375000  0.250000  0.500000      2.000000
 -0.250000  0.250000  0.500000      2.000000
 -0.125000  0.250000  0.500000      2.000000
  0.000000  0.375000  0.500000      2.000000
  0.125000  0.375000  0.500000      2.000000
  0.250000  0.375000  0.500000      2.000000
  0.375000  0.375000  0.500000      2.000000
  0.500000  0.375000  0.500000      2.000000
 -0.375000  0.375000  0.500000      2.000000
 -0.250000  0.375000  0.500000      2.000000
 -0.125000  0.375000  0.500000      2.000000
  0.000000  0.500000  0.500000      1.000000
  0.125000  0.500000  0.500000      2.000000
  0.250000  0.500000  0.500000      2.000000
  0.375000  0.500000  0.500000      2.000000
  0.500000  0.500000  0.500000      1.000000
 
 Following cartesian coordinates:
            Coordinates               Weight
  0.000000  0.000000  0.000000      1.000000
  0.062500  0.000000  0.000000      2.000000
  0.125000  0.000000  0.000000      2.000000
  0.187500  0.000000  0.000000      2.000000
  0.250000  0.000000  0.000000      1.000000
  0.000000  0.062500  0.000000      2.000000
  0.062500  0.062500  0.000000      2.000000
  0.125000  0.062500  0.000000      2.000000
  0.187500  0.062500  0.000000      2.000000
  0.250000  0.062500  0.000000      2.000000
 -0.187500  0.062500  0.000000      2.000000
 -0.125000  0.062500  0.000000      2.000000
 -0.062500  0.062500  0.000000      2.000000
  0.000000  0.125000  0.000000      2.000000
  0.062500  0.125000  0.000000      2.000000
  0.125000  0.125000  0.000000      2.000000
  0.187500  0.125000  0.000000      2.000000
  0.250000  0.125000  0.000000      2.000000
 -0.187500  0.125000  0.000000      2.000000
 -0.125000  0.125000  0.000000      2.000000
 -0.062500  0.125000  0.000000      2.000000
  0.000000  0.187500  0.000000      2.000000
  0.062500  0.187500  0.000000      2.000000
  0.125000  0.187500  0.000000      2.000000
  0.187500  0.187500  0.000000      2.000000
  0.250000  0.187500  0.000000      2.000000
 -0.187500  0.187500  0.000000      2.000000
 -0.125000  0.187500  0.000000      2.000000
 -0.062500  0.187500  0.000000      2.000000
  0.000000  0.250000  0.000000      1.000000
  0.062500  0.250000  0.000000      2.000000
  0.125000  0.250000  0.000000      2.000000
  0.187500  0.250000  0.000000      2.000000
  0.250000  0.250000  0.000000      1.000000
  0.000000  0.000000  0.062500      2.000000
  0.062500  0.000000  0.062500      2.000000
  0.125000  0.000000  0.062500      2.000000
  0.187500  0.000000  0.062500      2.000000
  0.250000  0.000000  0.062500      2.000000
 -0.187500  0.000000  0.062500      2.000000
 -0.125000  0.000000  0.062500      2.000000
 -0.062500  0.000000  0.062500      2.000000
  0.000000  0.062500  0.062500      2.000000
  0.062500  0.062500  0.062500      2.000000
  0.125000  0.062500  0.062500      2.000000
  0.187500  0.062500  0.062500      2.000000
  0.250000  0.062500  0.062500      2.000000
 -0.187500  0.062500  0.062500      2.000000
 -0.125000  0.062500  0.062500      2.000000
 -0.062500  0.062500  0.062500      2.000000
  0.000000  0.125000  0.062500      2.000000
  0.062500  0.125000  0.062500      2.000000
  0.125000  0.125000  0.062500      2.000000
  0.187500  0.125000  0.062500      2.000000
  0.250000  0.125000  0.062500      2.000000
 -0.187500  0.125000  0.062500      2.000000
 -0.125000  0.125000  0.062500      2.000000
 -0.062500  0.125000  0.062500      2.000000
  0.000000  0.187500  0.062500      2.000000
  0.062500  0.187500  0.062500      2.000000
  0.125000  0.187500  0.062500      2.000000
  0.187500  0.187500  0.062500      2.000000
  0.250000  0.187500  0.062500      2.000000
 -0.187500  0.187500  0.062500      2.000000
 -0.125000  0.187500  0.062500      2.000000
 -0.062500  0.187500  0.062500      2.000000
  0.000000  0.250000  0.062500      2.000000
  0.062500  0.250000  0.062500      2.000000
  0.125000  0.250000  0.062500      2.000000
  0.187500  0.250000  0.062500      2.000000
  0.250000  0.250000  0.062500      2.000000
 -0.187500  0.250000  0.062500      2.000000
 -0.125000  0.250000  0.062500      2.000000
 -0.062500  0.250000  0.062500      2.000000
  0.000000 -0.187500  0.062500      2.000000
  0.062500 -0.187500  0.062500      2.000000
  0.125000 -0.187500  0.062500      2.000000
  0.187500 -0.187500  0.062500      2.000000
  0.250000 -0.187500  0.062500      2.000000
 -0.187500 -0.187500  0.062500      2.000000
 -0.125000 -0.187500  0.062500      2.000000
 -0.062500 -0.187500  0.062500      2.000000
  0.000000 -0.125000  0.062500      2.000000
  0.062500 -0.125000  0.062500      2.000000
  0.125000 -0.125000  0.062500      2.000000
  0.187500 -0.125000  0.062500      2.000000
  0.250000 -0.125000  0.062500      2.000000
 -0.187500 -0.125000  0.062500      2.000000
 -0.125000 -0.125000  0.062500      2.000000
 -0.062500 -0.125000  0.062500      2.000000
  0.000000 -0.062500  0.062500      2.000000
  0.062500 -0.062500  0.062500      2.000000
  0.125000 -0.062500  0.062500      2.000000
  0.187500 -0.062500  0.062500      2.000000
  0.250000 -0.062500  0.062500      2.000000
 -0.187500 -0.062500  0.062500      2.000000
 -0.125000 -0.062500  0.062500      2.000000
 -0.062500 -0.062500  0.062500      2.000000
  0.000000  0.000000  0.125000      2.000000
  0.062500  0.000000  0.125000      2.000000
  0.125000  0.000000  0.125000      2.000000
  0.187500  0.000000  0.125000      2.000000
  0.250000  0.000000  0.125000      2.000000
 -0.187500  0.000000  0.125000      2.000000
 -0.125000  0.000000  0.125000      2.000000
 -0.062500  0.000000  0.125000      2.000000
  0.000000  0.062500  0.125000      2.000000
  0.062500  0.062500  0.125000      2.000000
  0.125000  0.062500  0.125000      2.000000
  0.187500  0.062500  0.125000      2.000000
  0.250000  0.062500  0.125000      2.000000
 -0.187500  0.062500  0.125000      2.000000
 -0.125000  0.062500  0.125000      2.000000
 -0.062500  0.062500  0.125000      2.000000
  0.000000  0.125000  0.125000      2.000000
  0.062500  0.125000  0.125000      2.000000
  0.125000  0.125000  0.125000      2.000000
  0.187500  0.125000  0.125000      2.000000
  0.250000  0.125000  0.125000      2.000000
 -0.187500  0.125000  0.125000      2.000000
 -0.125000  0.125000  0.125000      2.000000
 -0.062500  0.125000  0.125000      2.000000
  0.000000  0.187500  0.125000      2.000000
  0.062500  0.187500  0.125000      2.000000
  0.125000  0.187500  0.125000      2.000000
  0.187500  0.187500  0.125000      2.000000
  0.250000  0.187500  0.125000      2.000000
 -0.187500  0.187500  0.125000      2.000000
 -0.125000  0.187500  0.125000      2.000000
 -0.062500  0.187500  0.125000      2.000000
  0.000000  0.250000  0.125000      2.000000
  0.062500  0.250000  0.125000      2.000000
  0.125000  0.250000  0.125000      2.000000
  0.187500  0.250000  0.125000      2.000000
  0.250000  0.250000  0.125000      2.000000
 -0.187500  0.250000  0.125000      2.000000
 -0.125000  0.250000  0.125000      2.000000
 -0.062500  0.250000  0.125000      2.000000
  0.000000 -0.187500  0.125000      2.000000
  0.062500 -0.187500  0.125000      2.000000
  0.125000 -0.187500  0.125000      2.000000
  0.187500 -0.187500  0.125000      2.000000
  0.250000 -0.187500  0.125000      2.000000
 -0.187500 -0.187500  0.125000      2.000000
 -0.125000 -0.187500  0.125000      2.000000
 -0.062500 -0.187500  0.125000      2.000000
  0.000000 -0.125000  0.125000      2.000000
  0.062500 -0.125000  0.125000      2.000000
  0.125000 -0.125000  0.125000      2.000000
  0.187500 -0.125000  0.125000      2.000000
  0.250000 -0.125000  0.125000      2.000000
 -0.187500 -0.125000  0.125000      2.000000
 -0.125000 -0.125000  0.125000      2.000000
 -0.062500 -0.125000  0.125000      2.000000
  0.000000 -0.062500  0.125000      2.000000
  0.062500 -0.062500  0.125000      2.000000
  0.125000 -0.062500  0.125000      2.000000
  0.187500 -0.062500  0.125000      2.000000
  0.250000 -0.062500  0.125000      2.000000
 -0.187500 -0.062500  0.125000      2.000000
 -0.125000 -0.062500  0.125000      2.000000
 -0.062500 -0.062500  0.125000      2.000000
  0.000000  0.000000  0.187500      2.000000
  0.062500  0.000000  0.187500      2.000000
  0.125000  0.000000  0.187500      2.000000
  0.187500  0.000000  0.187500      2.000000
  0.250000  0.000000  0.187500      2.000000
 -0.187500  0.000000  0.187500      2.000000
 -0.125000  0.000000  0.187500      2.000000
 -0.062500  0.000000  0.187500      2.000000
  0.000000  0.062500  0.187500      2.000000
  0.062500  0.062500  0.187500      2.000000
  0.125000  0.062500  0.187500      2.000000
  0.187500  0.062500  0.187500      2.000000
  0.250000  0.062500  0.187500      2.000000
 -0.187500  0.062500  0.187500      2.000000
 -0.125000  0.062500  0.187500      2.000000
 -0.062500  0.062500  0.187500      2.000000
  0.000000  0.125000  0.187500      2.000000
  0.062500  0.125000  0.187500      2.000000
  0.125000  0.125000  0.187500      2.000000
  0.187500  0.125000  0.187500      2.000000
  0.250000  0.125000  0.187500      2.000000
 -0.187500  0.125000  0.187500      2.000000
 -0.125000  0.125000  0.187500      2.000000
 -0.062500  0.125000  0.187500      2.000000
  0.000000  0.187500  0.187500      2.000000
  0.062500  0.187500  0.187500      2.000000
  0.125000  0.187500  0.187500      2.000000
  0.187500  0.187500  0.187500      2.000000
  0.250000  0.187500  0.187500      2.000000
 -0.187500  0.187500  0.187500      2.000000
 -0.125000  0.187500  0.187500      2.000000
 -0.062500  0.187500  0.187500      2.000000
  0.000000  0.250000  0.187500      2.000000
  0.062500  0.250000  0.187500      2.000000
  0.125000  0.250000  0.187500      2.000000
  0.187500  0.250000  0.187500      2.000000
  0.250000  0.250000  0.187500      2.000000
 -0.187500  0.250000  0.187500      2.000000
 -0.125000  0.250000  0.187500      2.000000
 -0.062500  0.250000  0.187500      2.000000
  0.000000 -0.187500  0.187500      2.000000
  0.062500 -0.187500  0.187500      2.000000
  0.125000 -0.187500  0.187500      2.000000
  0.187500 -0.187500  0.187500      2.000000
  0.250000 -0.187500  0.187500      2.000000
 -0.187500 -0.187500  0.187500      2.000000
 -0.125000 -0.187500  0.187500      2.000000
 -0.062500 -0.187500  0.187500      2.000000
  0.000000 -0.125000  0.187500      2.000000
  0.062500 -0.125000  0.187500      2.000000
  0.125000 -0.125000  0.187500      2.000000
  0.187500 -0.125000  0.187500      2.000000
  0.250000 -0.125000  0.187500      2.000000
 -0.187500 -0.125000  0.187500      2.000000
 -0.125000 -0.125000  0.187500      2.000000
 -0.062500 -0.125000  0.187500      2.000000
  0.000000 -0.062500  0.187500      2.000000
  0.062500 -0.062500  0.187500      2.000000
  0.125000 -0.062500  0.187500      2.000000
  0.187500 -0.062500  0.187500      2.000000
  0.250000 -0.062500  0.187500      2.000000
 -0.187500 -0.062500  0.187500      2.000000
 -0.125000 -0.062500  0.187500      2.000000
 -0.062500 -0.062500  0.187500      2.000000
  0.000000  0.000000  0.250000      2.000000
  0.062500  0.000000  0.250000      2.000000
  0.125000  0.000000  0.250000      2.000000
  0.187500  0.000000  0.250000      2.000000
  0.250000  0.000000  0.250000      2.000000
 -0.187500  0.000000  0.250000      2.000000
 -0.125000  0.000000  0.250000      2.000000
 -0.062500  0.000000  0.250000      2.000000
  0.000000  0.062500  0.250000      2.000000
  0.062500  0.062500  0.250000      2.000000
  0.125000  0.062500  0.250000      2.000000
  0.187500  0.062500  0.250000      2.000000
  0.250000  0.062500  0.250000      2.000000
 -0.187500  0.062500  0.250000      2.000000
 -0.125000  0.062500  0.250000      2.000000
 -0.062500  0.062500  0.250000      2.000000
  0.000000  0.125000  0.250000      2.000000
  0.062500  0.125000  0.250000      2.000000
  0.125000  0.125000  0.250000      2.000000
  0.187500  0.125000  0.250000      2.000000
  0.250000  0.125000  0.250000      2.000000
 -0.187500  0.125000  0.250000      2.000000
 -0.125000  0.125000  0.250000      2.000000
 -0.062500  0.125000  0.250000      2.000000
  0.000000  0.187500  0.250000      2.000000
  0.062500  0.187500  0.250000      2.000000
  0.125000  0.187500  0.250000      2.000000
  0.187500  0.187500  0.250000      2.000000
  0.250000  0.187500  0.250000      2.000000
 -0.187500  0.187500  0.250000      2.000000
 -0.125000  0.187500  0.250000      2.000000
 -0.062500  0.187500  0.250000      2.000000
  0.000000  0.250000  0.250000      2.000000
  0.062500  0.250000  0.250000      2.000000
  0.125000  0.250000  0.250000      2.000000
  0.187500  0.250000  0.250000      2.000000
  0.250000  0.250000  0.250000      2.000000
 -0.187500  0.250000  0.250000      2.000000
 -0.125000  0.250000  0.250000      2.000000
 -0.062500  0.250000  0.250000      2.000000
  0.000000 -0.187500  0.250000      2.000000
  0.062500 -0.187500  0.250000      2.000000
  0.125000 -0.187500  0.250000      2.000000
  0.187500 -0.187500  0.250000      2.000000
  0.250000 -0.187500  0.250000      2.000000
 -0.187500 -0.187500  0.250000      2.000000
 -0.125000 -0.187500  0.250000      2.000000
 -0.062500 -0.187500  0.250000      2.000000
  0.000000 -0.125000  0.250000      2.000000
  0.062500 -0.125000  0.250000      2.000000
  0.125000 -0.125000  0.250000      2.000000
  0.187500 -0.125000  0.250000      2.000000
  0.250000 -0.125000  0.250000      2.000000
 -0.187500 -0.125000  0.250000      2.000000
 -0.125000 -0.125000  0.250000      2.000000
 -0.062500 -0.125000  0.250000      2.000000
  0.000000 -0.062500  0.250000      2.000000
  0.062500 -0.062500  0.250000      2.000000
  0.125000 -0.062500  0.250000      2.000000
  0.187500 -0.062500  0.250000      2.000000
  0.250000 -0.062500  0.250000      2.000000
 -0.187500 -0.062500  0.250000      2.000000
 -0.125000 -0.062500  0.250000      2.000000
 -0.062500 -0.062500  0.250000      2.000000
  0.000000  0.000000  0.312500      2.000000
  0.062500  0.000000  0.312500      2.000000
  0.125000  0.000000  0.312500      2.000000
  0.187500  0.000000  0.312500      2.000000
  0.250000  0.000000  0.312500      2.000000
 -0.187500  0.000000  0.312500      2.000000
 -0.125000  0.000000  0.312500      2.000000
 -0.062500  0.000000  0.312500      2.000000
  0.000000  0.062500  0.312500      2.000000
  0.062500  0.062500  0.312500      2.000000
  0.125000  0.062500  0.312500      2.000000
  0.187500  0.062500  0.312500      2.000000
  0.250000  0.062500  0.312500      2.000000
 -0.187500  0.062500  0.312500      2.000000
 -0.125000  0.062500  0.312500      2.000000
 -0.062500  0.062500  0.312500      2.000000
  0.000000  0.125000  0.312500      2.000000
  0.062500  0.125000  0.312500      2.000000
  0.125000  0.125000  0.312500      2.000000
  0.187500  0.125000  0.312500      2.000000
  0.250000  0.125000  0.312500      2.000000
 -0.187500  0.125000  0.312500      2.000000
 -0.125000  0.125000  0.312500      2.000000
 -0.062500  0.125000  0.312500      2.000000
  0.000000  0.187500  0.312500      2.000000
  0.062500  0.187500  0.312500      2.000000
  0.125000  0.187500  0.312500      2.000000
  0.187500  0.187500  0.312500      2.000000
  0.250000  0.187500  0.312500      2.000000
 -0.187500  0.187500  0.312500      2.000000
 -0.125000  0.187500  0.312500      2.000000
 -0.062500  0.187500  0.312500      2.000000
  0.000000  0.250000  0.312500      2.000000
  0.062500  0.250000  0.312500      2.000000
  0.125000  0.250000  0.312500      2.000000
  0.187500  0.250000  0.312500      2.000000
  0.250000  0.250000  0.312500      2.000000
 -0.187500  0.250000  0.312500      2.000000
 -0.125000  0.250000  0.312500      2.000000
 -0.062500  0.250000  0.312500      2.000000
  0.000000 -0.187500  0.312500      2.000000
  0.062500 -0.187500  0.312500      2.000000
  0.125000 -0.187500  0.312500      2.000000
  0.187500 -0.187500  0.312500      2.000000
  0.250000 -0.187500  0.312500      2.000000
 -0.187500 -0.187500  0.312500      2.000000
 -0.125000 -0.187500  0.312500      2.000000
 -0.062500 -0.187500  0.312500      2.000000
  0.000000 -0.125000  0.312500      2.000000
  0.062500 -0.125000  0.312500      2.000000
  0.125000 -0.125000  0.312500      2.000000
  0.187500 -0.125000  0.312500      2.000000
  0.250000 -0.125000  0.312500      2.000000
 -0.187500 -0.125000  0.312500      2.000000
 -0.125000 -0.125000  0.312500      2.000000
 -0.062500 -0.125000  0.312500      2.000000
  0.000000 -0.062500  0.312500      2.000000
  0.062500 -0.062500  0.312500      2.000000
  0.125000 -0.062500  0.312500      2.000000
  0.187500 -0.062500  0.312500      2.000000
  0.250000 -0.062500  0.312500      2.000000
 -0.187500 -0.062500  0.312500      2.000000
 -0.125000 -0.062500  0.312500      2.000000
 -0.062500 -0.062500  0.312500      2.000000
  0.000000  0.000000  0.375000      2.000000
  0.062500  0.000000  0.375000      2.000000
  0.125000  0.000000  0.375000      2.000000
  0.187500  0.000000  0.375000      2.000000
  0.250000  0.000000  0.375000      2.000000
 -0.187500  0.000000  0.375000      2.000000
 -0.125000  0.000000  0.375000      2.000000
 -0.062500  0.000000  0.375000      2.000000
  0.000000  0.062500  0.375000      2.000000
  0.062500  0.062500  0.375000      2.000000
  0.125000  0.062500  0.375000      2.000000
  0.187500  0.062500  0.375000      2.000000
  0.250000  0.062500  0.375000      2.000000
 -0.187500  0.062500  0.375000      2.000000
 -0.125000  0.062500  0.375000      2.000000
 -0.062500  0.062500  0.375000      2.000000
  0.000000  0.125000  0.375000      2.000000
  0.062500  0.125000  0.375000      2.000000
  0.125000  0.125000  0.375000      2.000000
  0.187500  0.125000  0.375000      2.000000
  0.250000  0.125000  0.375000      2.000000
 -0.187500  0.125000  0.375000      2.000000
 -0.125000  0.125000  0.375000      2.000000
 -0.062500  0.125000  0.375000      2.000000
  0.000000  0.187500  0.375000      2.000000
  0.062500  0.187500  0.375000      2.000000
  0.125000  0.187500  0.375000      2.000000
  0.187500  0.187500  0.375000      2.000000
  0.250000  0.187500  0.375000      2.000000
 -0.187500  0.187500  0.375000      2.000000
 -0.125000  0.187500  0.375000      2.000000
 -0.062500  0.187500  0.375000      2.000000
  0.000000  0.250000  0.375000      2.000000
  0.062500  0.250000  0.375000      2.000000
  0.125000  0.250000  0.375000      2.000000
  0.187500  0.250000  0.375000      2.000000
  0.250000  0.250000  0.375000      2.000000
 -0.187500  0.250000  0.375000      2.000000
 -0.125000  0.250000  0.375000      2.000000
 -0.062500  0.250000  0.375000      2.000000
  0.000000 -0.187500  0.375000      2.000000
  0.062500 -0.187500  0.375000      2.000000
  0.125000 -0.187500  0.375000      2.000000
  0.187500 -0.187500  0.375000      2.000000
  0.250000 -0.187500  0.375000      2.000000
 -0.187500 -0.187500  0.375000      2.000000
 -0.125000 -0.187500  0.375000      2.000000
 -0.062500 -0.187500  0.375000      2.000000
  0.000000 -0.125000  0.375000      2.000000
  0.062500 -0.125000  0.375000      2.000000
  0.125000 -0.125000  0.375000      2.000000
  0.187500 -0.125000  0.375000      2.000000
  0.250000 -0.125000  0.375000      2.000000
 -0.187500 -0.125000  0.375000      2.000000
 -0.125000 -0.125000  0.375000      2.000000
 -0.062500 -0.125000  0.375000      2.000000
  0.000000 -0.062500  0.375000      2.000000
  0.062500 -0.062500  0.375000      2.000000
  0.125000 -0.062500  0.375000      2.000000
  0.187500 -0.062500  0.375000      2.000000
  0.250000 -0.062500  0.375000      2.000000
 -0.187500 -0.062500  0.375000      2.000000
 -0.125000 -0.062500  0.375000      2.000000
 -0.062500 -0.062500  0.375000      2.000000
  0.000000  0.000000  0.437500      2.000000
  0.062500  0.000000  0.437500      2.000000
  0.125000  0.000000  0.437500      2.000000
  0.187500  0.000000  0.437500      2.000000
  0.250000  0.000000  0.437500      2.000000
 -0.187500  0.000000  0.437500      2.000000
 -0.125000  0.000000  0.437500      2.000000
 -0.062500  0.000000  0.437500      2.000000
  0.000000  0.062500  0.437500      2.000000
  0.062500  0.062500  0.437500      2.000000
  0.125000  0.062500  0.437500      2.000000
  0.187500  0.062500  0.437500      2.000000
  0.250000  0.062500  0.437500      2.000000
 -0.187500  0.062500  0.437500      2.000000
 -0.125000  0.062500  0.437500      2.000000
 -0.062500  0.062500  0.437500      2.000000
  0.000000  0.125000  0.437500      2.000000
  0.062500  0.125000  0.437500      2.000000
  0.125000  0.125000  0.437500      2.000000
  0.187500  0.125000  0.437500      2.000000
  0.250000  0.125000  0.437500      2.000000
 -0.187500  0.125000  0.437500      2.000000
 -0.125000  0.125000  0.437500      2.000000
 -0.062500  0.125000  0.437500      2.000000
  0.000000  0.187500  0.437500      2.000000
  0.062500  0.187500  0.437500      2.000000
  0.125000  0.187500  0.437500      2.000000
  0.187500  0.187500  0.437500      2.000000
  0.250000  0.187500  0.437500      2.000000
 -0.187500  0.187500  0.437500      2.000000
 -0.125000  0.187500  0.437500      2.000000
 -0.062500  0.187500  0.437500      2.000000
  0.000000  0.250000  0.437500      2.000000
  0.062500  0.250000  0.437500      2.000000
  0.125000  0.250000  0.437500      2.000000
  0.187500  0.250000  0.437500      2.000000
  0.250000  0.250000  0.437500      2.000000
 -0.187500  0.250000  0.437500      2.000000
 -0.125000  0.250000  0.437500      2.000000
 -0.062500  0.250000  0.437500      2.000000
  0.000000 -0.187500  0.437500      2.000000
  0.062500 -0.187500  0.437500      2.000000
  0.125000 -0.187500  0.437500      2.000000
  0.187500 -0.187500  0.437500      2.000000
  0.250000 -0.187500  0.437500      2.000000
 -0.187500 -0.187500  0.437500      2.000000
 -0.125000 -0.187500  0.437500      2.000000
 -0.062500 -0.187500  0.437500      2.000000
  0.000000 -0.125000  0.437500      2.000000
  0.062500 -0.125000  0.437500      2.000000
  0.125000 -0.125000  0.437500      2.000000
  0.187500 -0.125000  0.437500      2.000000
  0.250000 -0.125000  0.437500      2.000000
 -0.187500 -0.125000  0.437500      2.000000
 -0.125000 -0.125000  0.437500      2.000000
 -0.062500 -0.125000  0.437500      2.000000
  0.000000 -0.062500  0.437500      2.000000
  0.062500 -0.062500  0.437500      2.000000
  0.125000 -0.062500  0.437500      2.000000
  0.187500 -0.062500  0.437500      2.000000
  0.250000 -0.062500  0.437500      2.000000
 -0.187500 -0.062500  0.437500      2.000000
 -0.125000 -0.062500  0.437500      2.000000
 -0.062500 -0.062500  0.437500      2.000000
  0.000000  0.000000  0.500000      1.000000
  0.062500  0.000000  0.500000      2.000000
  0.125000  0.000000  0.500000      2.000000
  0.187500  0.000000  0.500000      2.000000
  0.250000  0.000000  0.500000      1.000000
  0.000000  0.062500  0.500000      2.000000
  0.062500  0.062500  0.500000      2.000000
  0.125000  0.062500  0.500000      2.000000
  0.187500  0.062500  0.500000      2.000000
  0.250000  0.062500  0.500000      2.000000
 -0.187500  0.062500  0.500000      2.000000
 -0.125000  0.062500  0.500000      2.000000
 -0.062500  0.062500  0.500000      2.000000
  0.000000  0.125000  0.500000      2.000000
  0.062500  0.125000  0.500000      2.000000
  0.125000  0.125000  0.500000      2.000000
  0.187500  0.125000  0.500000      2.000000
  0.250000  0.125000  0.500000      2.000000
 -0.187500  0.125000  0.500000      2.000000
 -0.125000  0.125000  0.500000      2.000000
 -0.062500  0.125000  0.500000      2.000000
  0.000000  0.187500  0.500000      2.000000
  0.062500  0.187500  0.500000      2.000000
  0.125000  0.187500  0.500000      2.000000
  0.187500  0.187500  0.500000      2.000000
  0.250000  0.187500  0.500000      2.000000
 -0.187500  0.187500  0.500000      2.000000
 -0.125000  0.187500  0.500000      2.000000
 -0.062500  0.187500  0.500000      2.000000
  0.000000  0.250000  0.500000      1.000000
  0.062500  0.250000  0.500000      2.000000
  0.125000  0.250000  0.500000      2.000000
  0.187500  0.250000  0.500000      2.000000
  0.250000  0.250000  0.500000      1.000000
 


--------------------------------------------------------------------------------------------------------




 Dimension of arrays:
   k-points           NKPTS =    516   k-points in BZ     NKDIM =    516   number of bands    NBANDS=    101
   number of dos      NEDOS =    301   number of ions     NIONS =     16
   non local maximal  LDIM  =      6   non local SUM 2l+1 LMDIM =     18
   total plane-waves  NPLWV = 176400
   max r-space proj   IRMAX =      1   max aug-charges    IRDMAX=  41929
   dimension x,y,z NGX =    70 NGY =   70 NGZ =   36
   dimension x,y,z NGXF=   140 NGYF=  140 NGZF=   72
   support grid    NGXF=   140 NGYF=  140 NGZF=   72
   ions per type =               9   7
 NGX,Y,Z   is equivalent  to a cutoff of  14.55, 14.55, 14.96 a.u.
 NGXF,Y,Z  is equivalent  to a cutoff of  29.09, 29.09, 29.92 a.u.


 I would recommend the setting:
   dimension x,y,z NGX =    67 NGY =   67 NGZ =   33
 SYSTEM =  bcc Al                                  
 POSCAR =  Math det4                               

 Startparameter for this run:
   NWRITE =      2    write-flag & timer
   PREC   = a         normal or accurate (medium, high low for compatibility)
   ISTART =      0    job   : 0-new  1-cont  2-samecut
   ICHARG =      1    charge: 1-file 2-atom 10-const
   ISPIN  =      1    spin polarized calculation?
   LNONCOLLINEAR =      F non collinear calculations
   LSORBIT =      F    spin-orbit coupling
   INIWAV =      1    electr: 0-lowe 1-rand  2-diag
   LASPH  =      F    aspherical Exc in radial PAW
   METAGGA=      F    non-selfconsistent MetaGGA calc.

 Electronic Relaxation 1
   ENCUT  =  650.0 eV  47.77 Ry    6.91 a.u.  16.63 16.63  8.32*2*pi/ulx,y,z
   ENINI  =  650.0     initial cutoff
   ENAUG  =  412.5 eV  augmentation charge cutoff
   NELM   =     80;   NELMIN=  3; NELMDL=  0     # of ELM steps 
   EDIFF  = 0.5E-05   stopping-criterion for ELM
   LREAL  =      F    real-space projection
   NLSPLINE    = F    spline interpolate recip. space projectors
   LCOMPAT=      F    compatible to vasp.4.4
   GGA_COMPAT  = T    GGA compatible to vasp.4.4-vasp.4.6
   LMAXPAW     = -100 max onsite density
   LMAXMIX     =    2 max onsite mixed and CHGCAR
   VOSKOWN=      0    Vosko Wilk Nusair interpolation
   ROPT   =    0.00000   0.00000
 Ionic relaxation
   EDIFFG = 0.5E-04   stopping-criterion for IOM
   NSW    =      0    number of steps for IOM
   NBLOCK =      1;   KBLOCK =      1    inner block; outer block 
   IBRION =     -1    ionic relax: 0-MD 1-quasi-New 2-CG
   NFREE  =      0    steps in history (QN), initial steepest desc. (CG)
   ISIF   =      0    stress and relaxation
   IWAVPR =     10    prediction:  0-non 1-charg 2-wave 3-comb
   ISYM   =      0    0-nonsym 1-usesym 2-fastsym
   LCORR  =      T    Harris-Foulkes like correction to forces

   POTIM  = 0.5000    time-step for ionic-motion
   TEIN   =    0.0    initial temperature
   TEBEG  =    0.0;   TEEND  =   0.0 temperature during run
   SMASS  =  -3.00    Nose mass-parameter (am)
   estimated Nose-frequenzy (Omega)   =  0.10E-29 period in steps =****** mass=  -0.146E-26a.u.
   SCALEE = 1.0000    scale energy and forces
   NPACO  =    256;   APACO  = 16.0  distance and # of slots for P.C.
   PSTRESS=    0.0 pullay stress

  Mass of Ions in am
   POMASS = 107.87195.08
  Ionic Valenz
   ZVAL   =  11.00 10.00
  Atomic Wigner-Seitz radii
   RWIGS  =  -1.00 -1.00
  virtual crystal weights 
   VCA    =   1.00  1.00
   NELECT =     169.0000    total number of electrons
   NUPDOWN=      -1.0000    fix difference up-down

 DOS related values:
   EMIN   =  10.00;   EMAX   =-10.00  energy-range for DOS
   EFERMI =   0.00
   ISMEAR =     0;   SIGMA  =   0.10  broadening in eV -4-tet -1-fermi 0-gaus

 Electronic relaxation 2 (details)
   IALGO  =     38    algorithm
   LDIAG  =      T    sub-space diagonalisation (order eigenvalues)
   LSUBROT=      F    optimize rotation matrix (better conditioning)
   TURBO    =      0    0=normal 1=particle mesh
   IRESTART =      0    0=no restart 2=restart with 2 vectors
   NREBOOT  =      0    no. of reboots
   NMIN     =      0    reboot dimension
   EREF     =   0.00    reference energy to select bands
   IMIX   =      4    mixing-type and parameters
     AMIX     =   0.40;   BMIX     =  1.00
     AMIX_MAG =   1.60;   BMIX_MAG =  1.00
     AMIN     =   0.10
     WC   =   100.;   INIMIX=   1;  MIXPRE=   1;  MAXMIX= -45

 Intra band minimization:
   WEIMIN = 0.0000     energy-eigenvalue tresh-hold
   EBREAK =  0.12E-07  absolut break condition
   DEPER  =   0.30     relativ break condition  

   TIME   =   0.40     timestep for ELM

  volume/ion in A,a.u.               =      16.00       107.97
  Fermi-wavevector in a.u.,A,eV,Ry     =   1.425467  2.693741 27.646431  2.031955
  Thomas-Fermi vector in A             =   2.545848
 
 Write flags
   LWAVE  =      F    write WAVECAR
   LCHARG =      F    write CHGCAR
   LVTOT  =      F    write LOCPOT, total local potential
   LVHAR  =      F    write LOCPOT, Hartree potential only
   LELF   =      F    write electronic localiz. function (ELF)
   LORBIT =      0    0 simple, 1 ext, 2 COOP (PROOUT)


 Dipole corrections
   LMONO  =      F    monopole corrections only (constant potential shift)
   LDIPOL =      F    correct potential (dipole corrections)
   IDIPOL =      0    1-x, 2-y, 3-z, 4-all directions 
   EPSILON=  1.0000000 bulk dielectric constant

 Exchange correlation treatment:
   GGA     =    --    GGA type
   LEXCH   =     8    internal setting for exchange type
   VOSKOWN=      0    Vosko Wilk Nusair interpolation
   LHFCALC =     F    Hartree Fock is set to
   LHFONE  =     F    Hartree Fock one center treatment
   AEXX    =    0.0000 exact exchange contribution

 Linear response parameters
   LEPSILON=     F    determine dielectric tensor
   LRPA    =     F    only Hartree local field effects (RPA)
   LNABLA  =     F    use nabla operator in PAW spheres
   LVEL    =     F    velocity operator in full k-point grid
   LINTERFAST=   F  fast interpolation
   KINTER  =     0    interpolate to denser k-point grid
   CSHIFT  =0.1000    complex shift for real part using Kramers Kronig
   OMEGAMAX=  -1.0    maximum frequency
   DEG_THRESHOLD= 0.2000000E-02 threshold for treating states as degnerate
   RTIME   =    0.100 relaxation time in fs

 Orbital magnetization related:
   ORBITALMAG=     F  switch on orbital magnetization
   LCHIMAG   =     F  perturbation theory with respect to B field
   DQ        =  0.001000  dq finite difference perturbation B field



--------------------------------------------------------------------------------------------------------


 Static calculation
 charge density and potential will be updated during run
 non-spin polarized calculation
 Variant of blocked Davidson
 Davidson routine will perform the subspace rotation
 perform sub-space diagonalisation
    after iterative eigenvector-optimisation
 modified Broyden-mixing scheme, WC =      100.0
 initial mixing is a Kerker type mixing with AMIX =  0.4000 and BMIX =      1.0000
 Hartree-type preconditioning will be used
 using additional bands           16
 reciprocal scheme for non local part
 use partial core corrections
 calculate Harris-corrections to forces 
   (improved forces if not selfconsistent)
 use gradient corrections 
 use of overlap-Matrix (Vanderbilt PP)
 Methfessel and Paxton  Order N= 1 SIGMA  =   0.10


--------------------------------------------------------------------------------------------------------


  energy-cutoff  :      650.00
  volume of cell :      256.00
      direct lattice vectors                 reciprocal lattice vectors
     8.000000000  0.000000000  0.000000000     0.125000000  0.000000000  0.000000000
     0.000000000  8.000000000  0.000000000     0.000000000  0.125000000  0.000000000
     0.000000000  0.000000000  4.000000000     0.000000000  0.000000000  0.250000000

  length of vectors
     8.000000000  8.000000000  4.000000000     0.125000000  0.125000000  0.250000000


 
 k-points in units of 2pi/SCALE and weight: K-Points                                
   0.00000000  0.00000000  0.00000000       0.001
   0.06250000  0.00000000  0.00000000       0.002
   0.12500000  0.00000000  0.00000000       0.002
   0.18750000  0.00000000  0.00000000       0.002
   0.25000000  0.00000000  0.00000000       0.001
   0.00000000  0.06250000  0.00000000       0.002
   0.06250000  0.06250000  0.00000000       0.002
   0.12500000  0.06250000  0.00000000       0.002
   0.18750000  0.06250000  0.00000000       0.002
   0.25000000  0.06250000  0.00000000       0.002
  -0.18750000  0.06250000  0.00000000       0.002
  -0.12500000  0.06250000  0.00000000       0.002
  -0.06250000  0.06250000  0.00000000       0.002
   0.00000000  0.12500000  0.00000000       0.002
   0.06250000  0.12500000  0.00000000       0.002
   0.12500000  0.12500000  0.00000000       0.002
   0.18750000  0.12500000  0.00000000       0.002
   0.25000000  0.12500000  0.00000000       0.002
  -0.18750000  0.12500000  0.00000000       0.002
  -0.12500000  0.12500000  0.00000000       0.002
  -0.06250000  0.12500000  0.00000000       0.002
   0.00000000  0.18750000  0.00000000       0.002
   0.06250000  0.18750000  0.00000000       0.002
   0.12500000  0.18750000  0.00000000       0.002
   0.18750000  0.18750000  0.00000000       0.002
   0.25000000  0.18750000  0.00000000       0.002
  -0.18750000  0.18750000  0.00000000       0.002
  -0.12500000  0.18750000  0.00000000       0.002
  -0.06250000  0.18750000  0.00000000       0.002
   0.00000000  0.25000000  0.00000000       0.001
   0.06250000  0.25000000  0.00000000       0.002
   0.12500000  0.25000000  0.00000000       0.002
   0.18750000  0.25000000  0.00000000       0.002
   0.25000000  0.25000000  0.00000000       0.001
   0.00000000  0.00000000  0.06250000       0.002
   0.06250000  0.00000000  0.06250000       0.002
   0.12500000  0.00000000  0.06250000       0.002
   0.18750000  0.00000000  0.06250000       0.002
   0.25000000  0.00000000  0.06250000       0.002
  -0.18750000  0.00000000  0.06250000       0.002
  -0.12500000  0.00000000  0.06250000       0.002
  -0.06250000  0.00000000  0.06250000       0.002
   0.00000000  0.06250000  0.06250000       0.002
   0.06250000  0.06250000  0.06250000       0.002
   0.12500000  0.06250000  0.06250000       0.002
   0.18750000  0.06250000  0.06250000       0.002
   0.25000000  0.06250000  0.06250000       0.002
  -0.18750000  0.06250000  0.06250000       0.002
  -0.12500000  0.06250000  0.06250000       0.002
  -0.06250000  0.06250000  0.06250000       0.002
   0.00000000  0.12500000  0.06250000       0.002
   0.06250000  0.12500000  0.06250000       0.002
   0.12500000  0.12500000  0.06250000       0.002
   0.18750000  0.12500000  0.06250000       0.002
   0.25000000  0.12500000  0.06250000       0.002
  -0.18750000  0.12500000  0.06250000       0.002
  -0.12500000  0.12500000  0.06250000       0.002
  -0.06250000  0.12500000  0.06250000       0.002
   0.00000000  0.18750000  0.06250000       0.002
   0.06250000  0.18750000  0.06250000       0.002
   0.12500000  0.18750000  0.06250000       0.002
   0.18750000  0.18750000  0.06250000       0.002
   0.25000000  0.18750000  0.06250000       0.002
  -0.18750000  0.18750000  0.06250000       0.002
  -0.12500000  0.18750000  0.06250000       0.002
  -0.06250000  0.18750000  0.06250000       0.002
   0.00000000  0.25000000  0.06250000       0.002
   0.06250000  0.25000000  0.06250000       0.002
   0.12500000  0.25000000  0.06250000       0.002
   0.18750000  0.25000000  0.06250000       0.002
   0.25000000  0.25000000  0.06250000       0.002
  -0.18750000  0.25000000  0.06250000       0.002
  -0.12500000  0.25000000  0.06250000       0.002
  -0.06250000  0.25000000  0.06250000       0.002
   0.00000000 -0.18750000  0.06250000       0.002
   0.06250000 -0.18750000  0.06250000       0.002
   0.12500000 -0.18750000  0.06250000       0.002
   0.18750000 -0.18750000  0.06250000       0.002
   0.25000000 -0.18750000  0.06250000       0.002
  -0.18750000 -0.18750000  0.06250000       0.002
  -0.12500000 -0.18750000  0.06250000       0.002
  -0.06250000 -0.18750000  0.06250000       0.002
   0.00000000 -0.12500000  0.06250000       0.002
   0.06250000 -0.12500000  0.06250000       0.002
   0.12500000 -0.12500000  0.06250000       0.002
   0.18750000 -0.12500000  0.06250000       0.002
   0.25000000 -0.12500000  0.06250000       0.002
  -0.18750000 -0.12500000  0.06250000       0.002
  -0.12500000 -0.12500000  0.06250000       0.002
  -0.06250000 -0.12500000  0.06250000       0.002
   0.00000000 -0.06250000  0.06250000       0.002
   0.06250000 -0.06250000  0.06250000       0.002
   0.12500000 -0.06250000  0.06250000       0.002
   0.18750000 -0.06250000  0.06250000       0.002
   0.25000000 -0.06250000  0.06250000       0.002
  -0.18750000 -0.06250000  0.06250000       0.002
  -0.12500000 -0.06250000  0.06250000       0.002
  -0.06250000 -0.06250000  0.06250000       0.002
   0.00000000  0.00000000  0.12500000       0.002
   0.06250000  0.00000000  0.12500000       0.002
   0.12500000  0.00000000  0.12500000       0.002
   0.18750000  0.00000000  0.12500000       0.002
   0.25000000  0.00000000  0.12500000       0.002
  -0.18750000  0.00000000  0.12500000       0.002
  -0.12500000  0.00000000  0.12500000       0.002
  -0.06250000  0.00000000  0.12500000       0.002
   0.00000000  0.06250000  0.12500000       0.002
   0.06250000  0.06250000  0.12500000       0.002
   0.12500000  0.06250000  0.12500000       0.002
   0.18750000  0.06250000  0.12500000       0.002
   0.25000000  0.06250000  0.12500000       0.002
  -0.18750000  0.06250000  0.12500000       0.002
  -0.12500000  0.06250000  0.12500000       0.002
  -0.06250000  0.06250000  0.12500000       0.002
   0.00000000  0.12500000  0.12500000       0.002
   0.06250000  0.12500000  0.12500000       0.002
   0.12500000  0.12500000  0.12500000       0.002
   0.18750000  0.12500000  0.12500000       0.002
   0.25000000  0.12500000  0.12500000       0.002
  -0.18750000  0.12500000  0.12500000       0.002
  -0.12500000  0.12500000  0.12500000       0.002
  -0.06250000  0.12500000  0.12500000       0.002
   0.00000000  0.18750000  0.12500000       0.002
   0.06250000  0.18750000  0.12500000       0.002
   0.12500000  0.18750000  0.12500000       0.002
   0.18750000  0.18750000  0.12500000       0.002
   0.25000000  0.18750000  0.12500000       0.002
  -0.18750000  0.18750000  0.12500000       0.002
  -0.12500000  0.18750000  0.12500000       0.002
  -0.06250000  0.18750000  0.12500000       0.002
   0.00000000  0.25000000  0.12500000       0.002
   0.06250000  0.25000000  0.12500000       0.002
   0.12500000  0.25000000  0.12500000       0.002
   0.18750000  0.25000000  0.12500000       0.002
   0.25000000  0.25000000  0.12500000       0.002
  -0.18750000  0.25000000  0.12500000       0.002
  -0.12500000  0.25000000  0.12500000       0.002
  -0.06250000  0.25000000  0.12500000       0.002
   0.00000000 -0.18750000  0.12500000       0.002
   0.06250000 -0.18750000  0.12500000       0.002
   0.12500000 -0.18750000  0.12500000       0.002
   0.18750000 -0.18750000  0.12500000       0.002
   0.25000000 -0.18750000  0.12500000       0.002
  -0.18750000 -0.18750000  0.12500000       0.002
  -0.12500000 -0.18750000  0.12500000       0.002
  -0.06250000 -0.18750000  0.12500000       0.002
   0.00000000 -0.12500000  0.12500000       0.002
   0.06250000 -0.12500000  0.12500000       0.002
   0.12500000 -0.12500000  0.12500000       0.002
   0.18750000 -0.12500000  0.12500000       0.002
   0.25000000 -0.12500000  0.12500000       0.002
  -0.18750000 -0.12500000  0.12500000       0.002
  -0.12500000 -0.12500000  0.12500000       0.002
  -0.06250000 -0.12500000  0.12500000       0.002
   0.00000000 -0.06250000  0.12500000       0.002
   0.06250000 -0.06250000  0.12500000       0.002
   0.12500000 -0.06250000  0.12500000       0.002
   0.18750000 -0.06250000  0.12500000       0.002
   0.25000000 -0.06250000  0.12500000       0.002
  -0.18750000 -0.06250000  0.12500000       0.002
  -0.12500000 -0.06250000  0.12500000       0.002
  -0.06250000 -0.06250000  0.12500000       0.002
   0.00000000  0.00000000  0.18750000       0.002
   0.06250000  0.00000000  0.18750000       0.002
   0.12500000  0.00000000  0.18750000       0.002
   0.18750000  0.00000000  0.18750000       0.002
   0.25000000  0.00000000  0.18750000       0.002
  -0.18750000  0.00000000  0.18750000       0.002
  -0.12500000  0.00000000  0.18750000       0.002
  -0.06250000  0.00000000  0.18750000       0.002
   0.00000000  0.06250000  0.18750000       0.002
   0.06250000  0.06250000  0.18750000       0.002
   0.12500000  0.06250000  0.18750000       0.002
   0.18750000  0.06250000  0.18750000       0.002
   0.25000000  0.06250000  0.18750000       0.002
  -0.18750000  0.06250000  0.18750000       0.002
  -0.12500000  0.06250000  0.18750000       0.002
  -0.06250000  0.06250000  0.18750000       0.002
   0.00000000  0.12500000  0.18750000       0.002
   0.06250000  0.12500000  0.18750000       0.002
   0.12500000  0.12500000  0.18750000       0.002
   0.18750000  0.12500000  0.18750000       0.002
   0.25000000  0.12500000  0.18750000       0.002
  -0.18750000  0.12500000  0.18750000       0.002
  -0.12500000  0.12500000  0.18750000       0.002
  -0.06250000  0.12500000  0.18750000       0.002
   0.00000000  0.18750000  0.18750000       0.002
   0.06250000  0.18750000  0.18750000       0.002
   0.12500000  0.18750000  0.18750000       0.002
   0.18750000  0.18750000  0.18750000       0.002
   0.25000000  0.18750000  0.18750000       0.002
  -0.18750000  0.18750000  0.18750000       0.002
[...]
     44       5.5667      2.00000
     45       5.5939      2.00000
     46       5.6779      2.00000
     47       5.7722      2.00000
     48       5.7850      2.00000
     49       5.8102      2.00000
     50       5.9675      2.00000
     51       5.9716      2.00000
     52       6.0696      2.00000
     53       6.0956      2.00000
     54       6.1573      2.00000
     55       6.1866      2.00000
     56       6.3092      2.00000
     57       6.4205      2.00000
     58       6.4825      2.00000
     59       6.5348      2.00000
     60       6.5874      2.00000
     61       6.6356      2.00000
     62       6.7543      2.00000
     63       6.8311      2.00000
     64       6.8957      2.00000
     65       7.0282      2.00000
     66       7.1836      2.00000
     67       7.3302      2.00000
     68       7.3889      2.00000
     69       7.4308      2.00000
     70       7.4849      2.00000
     71       7.6728      2.00000
     72       7.7852      2.00000
     73       7.8080      2.00000
     74       8.0225      2.00000
     75       8.0418      2.00000
     76       8.1932      2.00000
     77       8.2094      2.00000
     78       8.3227      2.00000
     79       8.5482      2.00000
     80       8.5483      2.00000
     81       8.8191      2.00000
     82       8.8227      2.00000
     83       9.0443      2.00032
     84       9.0624      2.00082
     85       9.2110      2.07089
     86       9.2343      2.05060
     87       9.3838      0.26770
     88       9.4195     -0.00347
     89      11.3148     -0.00000
     90      11.3156     -0.00000
     91      11.5355     -0.00000
     92      11.5967     -0.00000
     93      12.9404      0.00000
     94      13.0342      0.00000
     95      13.2408      0.00000
     96      13.4724      0.00000
     97      14.7128      0.00000
     98      14.8663      0.00000
     99      14.9666      0.00000
    100      14.9679      0.00000
    101      15.7699      0.00000

 k-point   515 :       0.3750    0.5000    0.5000
  band No.  band energies     occupation 
      1       3.0362      2.00000
      2       3.0689      2.00000
      3       3.1845      2.00000
      4       3.1945      2.00000
      5       3.2671      2.00000
      6       3.4208      2.00000
      7       3.4752      2.00000
      8       3.5335      2.00000
      9       3.5581      2.00000
     10       3.6296      2.00000
     11       3.6956      2.00000
     12       3.7030      2.00000
     13       3.9026      2.00000
     14       3.9780      2.00000
     15       4.0600      2.00000
     16       4.1287      2.00000
     17       4.2108      2.00000
     18       4.2185      2.00000
     19       4.2874      2.00000
     20       4.4371      2.00000
     21       4.5179      2.00000
     22       4.5480      2.00000
     23       4.6552      2.00000
     24       4.7127      2.00000
     25       4.7262      2.00000
     26       4.7641      2.00000
     27       4.8099      2.00000
     28       4.8751      2.00000
     29       4.8761      2.00000
     30       4.9189      2.00000
     31       4.9337      2.00000
     32       4.9982      2.00000
     33       5.0140      2.00000
     34       5.0856      2.00000
     35       5.0921      2.00000
     36       5.1249      2.00000
     37       5.1875      2.00000
     38       5.2294      2.00000
     39       5.2482      2.00000
     40       5.4081      2.00000
     41       5.4452      2.00000
     42       5.4678      2.00000
     43       5.4798      2.00000
     44       5.5382      2.00000
     45       5.5680      2.00000
     46       5.6466      2.00000
     47       5.6813      2.00000
     48       5.6993      2.00000
     49       5.7535      2.00000
     50       5.8931      2.00000
     51       5.9047      2.00000
     52       5.9502      2.00000
     53       6.0092      2.00000
     54       6.0303      2.00000
     55       6.1445      2.00000
     56       6.2789      2.00000
     57       6.3156      2.00000
     58       6.4262      2.00000
     59       6.4471      2.00000
     60       6.5098      2.00000
     61       6.5593      2.00000
     62       6.6533      2.00000
     63       6.7225      2.00000
     64       6.8267      2.00000
     65       7.0916      2.00000
     66       7.2309      2.00000
     67       7.3736      2.00000
     68       7.4759      2.00000
     69       7.5116      2.00000
     70       7.6354      2.00000
     71       7.7201      2.00000
     72       7.8366      2.00000
     73       7.8407      2.00000
     74       8.0373      2.00000
     75       8.1169      2.00000
     76       8.2408      2.00000
     77       8.2493      2.00000
     78       8.3178      2.00000
     79       8.5755      2.00000
     80       8.5846      2.00000
     81       8.8169      2.00000
     82       8.8344      2.00000
     83       8.8535      2.00000
     84       8.8627      2.00000
     85       9.1326      2.01502
     86       9.1525      2.02740
     87       9.1905      2.06048
     88       9.2808      1.77890
     89      12.0646      0.00000
     90      12.0705      0.00000
     91      12.2162      0.00000
     92      12.2837      0.00000
     93      13.0462      0.00000
     94      13.1197      0.00000
     95      13.3289      0.00000
     96      13.4823      0.00000
     97      14.2584      0.00000
     98      14.3631      0.00000
     99      14.4833      0.00000
    100      14.4844      0.00000
    101      14.8569      0.00000

 k-point   516 :       0.5000    0.5000    0.5000
  band No.  band energies     occupation 
      1       3.0324      2.00000
      2       3.0616      2.00000
      3       3.1908      2.00000
      4       3.1931      2.00000
      5       3.2442      2.00000
      6       3.4060      2.00000
      7       3.4639      2.00000
      8       3.5286      2.00000
      9       3.6756      2.00000
     10       3.6979      2.00000
     11       3.7161      2.00000
     12       3.7463      2.00000
     13       3.7987      2.00000
     14       3.8644      2.00000
     15       4.0044      2.00000
     16       4.0859      2.00000
     17       4.2256      2.00000
     18       4.2310      2.00000
     19       4.2929      2.00000
     20       4.4727      2.00000
     21       4.4810      2.00000
     22       4.4971      2.00000
     23       4.7268      2.00000
     24       4.7327      2.00000
     25       4.7843      2.00000
     26       4.8347      2.00000
     27       4.8636      2.00000
     28       4.8975      2.00000
     29       4.9038      2.00000
     30       4.9207      2.00000
     31       4.9717      2.00000
     32       4.9926      2.00000
     33       5.0391      2.00000
     34       5.1012      2.00000
     35       5.1284      2.00000
     36       5.1547      2.00000
     37       5.2241      2.00000
     38       5.2284      2.00000
     39       5.3240      2.00000
     40       5.3356      2.00000
     41       5.3538      2.00000
     42       5.4690      2.00000
     43       5.5011      2.00000
     44       5.5345      2.00000
     45       5.5955      2.00000
     46       5.6287      2.00000
     47       5.6572      2.00000
     48       5.6805      2.00000
     49       5.7226      2.00000
     50       5.8281      2.00000
     51       5.8812      2.00000
     52       5.8855      2.00000
     53       5.9618      2.00000
     54       5.9733      2.00000
     55       6.1616      2.00000
     56       6.2139      2.00000
     57       6.3607      2.00000
     58       6.3801      2.00000
     59       6.4135      2.00000
     60       6.4896      2.00000
     61       6.5170      2.00000
     62       6.6266      2.00000
     63       6.6444      2.00000
     64       6.8107      2.00000
     65       7.1162      2.00000
     66       7.2430      2.00000
     67       7.3911      2.00000
     68       7.4916      2.00000
     69       7.5796      2.00000
     70       7.7177      2.00000
     71       7.7695      2.00000
     72       7.8422      2.00000
     73       7.8625      2.00000
     74       7.9663      2.00000
     75       8.1604      2.00000
     76       8.2474      2.00000
     77       8.2859      2.00000
     78       8.3370      2.00000
     79       8.5847      2.00000
     80       8.6799      2.00000
     81       8.6983      2.00000
     82       8.7700      2.00000
     83       8.8143      2.00000
     84       8.8368      2.00000
     85       9.0412      2.00027
     86       9.1107      2.00688
     87       9.1841      2.05500
     88       9.2542      1.98169
     89      12.5805      0.00000
     90      12.6150      0.00000
     91      12.6825      0.00000
     92      12.8895      0.00000
     93      12.9462      0.00000
     94      12.9744      0.00000
     95      13.1079      0.00000
     96      13.3026      0.00000
     97      14.0531      0.00000
     98      14.1862      0.00000
     99      14.2498      0.00000
    100      14.2589      0.00000
    101      14.4431      0.00000


--------------------------------------------------------------------------------------------------------


 soft charge-density along one line, spin component           1
         0         1         2         3         4         5         6         7         8         9
 total charge-density along one line
 
 pseudopotential strength for first ion, spin component:           1
 -3.463   0.000   0.003  -0.000   0.000  -3.718   0.000   0.003
  0.000  -3.461  -0.000  -0.005   0.000   0.000  -3.717  -0.000
  0.003  -0.000  -3.452   0.000  -0.007   0.003  -0.000  -3.708
 -0.000  -0.005   0.000  -3.456   0.000  -0.000  -0.005   0.000
  0.000   0.000  -0.007   0.000  -3.443   0.000   0.000  -0.007
 -3.718   0.000   0.003  -0.000   0.000  -3.938   0.000   0.003
  0.000  -3.717  -0.000  -0.005   0.000   0.000  -3.937  -0.000
  0.003  -0.000  -3.708   0.000  -0.007   0.003  -0.000  -3.928
 -0.000  -0.005   0.000  -3.712   0.000  -0.000  -0.004   0.000
  0.000   0.000  -0.007   0.000  -3.700   0.000   0.000  -0.006
  0.000  -0.000  -0.001  -0.000  -0.001   0.000  -0.000  -0.001
  0.000  -0.000  -0.002  -0.000  -0.001   0.000  -0.000  -0.001
  0.012  -0.000  -0.004   0.000  -0.005   0.011  -0.000  -0.003
  0.000   0.005  -0.000   0.013  -0.000   0.000   0.005  -0.000
  0.006   0.000  -0.006  -0.000   0.012   0.006   0.000  -0.006
  0.016  -0.000  -0.005   0.000  -0.007   0.015  -0.000  -0.004
  0.000   0.007  -0.000   0.017  -0.000   0.000   0.007  -0.000
  0.008   0.000  -0.009  -0.000   0.016   0.008   0.000  -0.008
 total augmentation occupancy for first ion, spin component:           1
  4.050  -0.000   0.007  -0.000   0.018  -2.181   0.000  -0.026   0.000  -0.013   0.058   0.013   0.077  -0.000   0.043   0.002
 -0.000   4.285   0.000  -0.139  -0.000   0.000  -2.268  -0.000   0.113   0.000   0.000  -0.000   0.000   0.014  -0.000  -0.000
  0.007   0.000   3.997   0.000  -0.140  -0.026  -0.000  -1.919  -0.000   0.102   0.087   0.014  -0.018   0.000  -0.002  -0.001
 -0.000  -0.139   0.000   4.374   0.000   0.000   0.113  -0.000  -2.414  -0.000   0.000  -0.000  -0.000   0.108   0.000   0.000
  0.018  -0.000  -0.140   0.000   4.325  -0.013   0.000   0.102  -0.000  -2.163  -0.060  -0.009  -0.010   0.000   0.051  -0.002
 -2.181   0.000  -0.026   0.000  -0.013   2.227  -0.000   0.039  -0.000   0.010  -0.061  -0.002  -0.068   0.000  -0.041   0.003
  0.000  -2.268  -0.000   0.113   0.000  -0.000   2.202   0.000  -0.090  -0.000  -0.000   0.000  -0.000  -0.011   0.000   0.000
 -0.026  -0.000  -1.919  -0.000   0.102   0.039   0.000   1.799   0.000  -0.071  -0.082  -0.005   0.019  -0.000   0.002  -0.000
  0.000   0.113  -0.000  -2.414  -0.000  -0.000  -0.090   0.000   2.388   0.000   0.000  -0.000  -0.000  -0.099  -0.000   0.000
 -0.013   0.000   0.102  -0.000  -2.163   0.010  -0.000  -0.071   0.000   1.972   0.065  -0.004   0.008  -0.000  -0.047  -0.000
  0.058   0.000   0.087   0.000  -0.060  -0.061  -0.000  -0.082   0.000   0.065   2.437  -0.504  -0.009   0.000  -0.023   0.001
  0.013  -0.000   0.014  -0.000  -0.009  -0.002   0.000  -0.005  -0.000  -0.004  -0.504   0.118   0.000  -0.000   0.006  -0.000
  0.077   0.000  -0.018  -0.000  -0.010  -0.068  -0.000   0.019  -0.000   0.008  -0.009   0.000   0.212   0.000  -0.007  -0.013
 -0.000   0.014   0.000   0.108   0.000   0.000  -0.011  -0.000  -0.099  -0.000   0.000  -0.000   0.000   0.203   0.000  -0.000
  0.043  -0.000  -0.002   0.000   0.051  -0.041   0.000   0.002  -0.000  -0.047  -0.023   0.006  -0.007   0.000   0.224   0.000
  0.002  -0.000  -0.001   0.000  -0.002   0.003   0.000  -0.000   0.000  -0.000   0.001  -0.000  -0.013  -0.000   0.000   0.001
  0.000   0.001  -0.000   0.002  -0.000   0.000   0.000   0.000   0.003   0.000   0.000  -0.000  -0.000  -0.013  -0.000   0.000
  0.002   0.000  -0.002  -0.000   0.003   0.001  -0.000  -0.000   0.000   0.002   0.004  -0.001   0.000  -0.000  -0.014  -0.000


------------------------ aborting loop because EDIFF is reached ----------------------------------------


    CHARGE:  cpu time   10.3754: real time   10.3936
    FORLOC:  cpu time    0.0090: real time    0.0086
    FORNL :  cpu time   84.4812: real time   84.6147
    FORCOR:  cpu time    0.0690: real time    0.0701
    FORHAR:  cpu time    0.0210: real time    0.0212
    MIXING:  cpu time    0.0020: real time    0.0024
    OFIELD:  cpu time    0.0000: real time    0.0007

 VOLUME and BASIS-vectors are now :
 -----------------------------------------------------------------------------
  energy-cutoff  :      650.00
  volume of cell :      256.00
      direct lattice vectors                 reciprocal lattice vectors
     8.000000000  0.000000000  0.000000000     0.125000000  0.000000000  0.000000000
     0.000000000  8.000000000  0.000000000     0.000000000  0.125000000  0.000000000
     0.000000000  0.000000000  4.000000000     0.000000000  0.000000000  0.250000000

  length of vectors
     8.000000000  8.000000000  4.000000000     0.125000000  0.125000000  0.250000000


 FORCES acting on ions
    electron-ion (+dipol)            ewald-force                    non-local-force                 convergence-correction
 -----------------------------------------------------------------------------------------------
   0.369E+02 0.138E+02 -.260E-05   -.377E+02 -.143E+02 -.294E-13   0.607E+00 0.406E+00 -.478E-06   0.520E-01 0.241E-01 0.315E-05
   0.365E+02 0.874E+01 0.632E-06   -.377E+02 -.905E+01 -.173E-13   0.102E+01 0.201E+00 0.313E-06   0.445E-01 0.280E-01 -.983E-06
   0.192E+02 -.139E+02 -.220E-06   -.196E+02 0.143E+02 -.175E-13   0.327E+00 -.318E+00 -.568E-07   0.213E-01 -.238E-01 0.802E-07
   0.194E+02 -.872E+01 0.379E-06   -.196E+02 0.905E+01 0.159E-14   0.141E+00 -.239E+00 -.677E-06   0.276E-01 -.283E-01 0.353E-06
   -.333E+02 0.227E+02 0.427E-05   0.339E+02 -.234E+02 -.123E-13   -.575E+00 0.538E+00 0.159E-05   -.270E-02 0.450E-01 -.593E-05
   -.418E+02 -.880E+01 0.167E-05   0.430E+02 0.905E+01 0.741E-15   -.103E+01 -.215E+00 -.368E-06   0.157E-01 0.116E-01 -.116E-05
   -.509E+02 -.228E+02 -.839E-06   0.520E+02 0.234E+02 0.472E-14   -.910E+00 -.443E+00 0.778E-06   0.880E-03 -.440E-01 -.458E-07
   -.371E+02 0.141E+02 -.191E-05   0.377E+02 -.143E+02 -.572E-14   -.510E+00 0.179E+00 -.496E-06   -.471E-01 0.519E-01 0.248E-05
   0.512E+02 -.528E+01 -.375E-05   -.520E+02 0.528E+01 -.465E-14   0.771E+00 0.208E-01 0.254E-06   -.463E-02 -.338E-01 0.341E-05
   -.388E+02 0.819E+01 -.268E-05   0.391E+02 -.822E+01 0.948E-14   0.211E+00 -.172E+00 -.534E-07   -.600E-02 -.128E-01 0.278E-05
   -.343E+02 -.790E+01 -.109E-04   0.343E+02 0.822E+01 -.640E-15   0.689E+00 0.738E-02 0.405E-06   -.301E-01 0.299E-01 0.108E-04
   -.178E+02 -.130E+02 0.528E-05   0.178E+02 0.130E+02 0.822E-14   0.142E+00 0.834E-01 -.349E-06   -.145E-01 -.492E-01 -.506E-05
   -.178E+02 0.790E+01 0.853E-06   0.178E+02 -.822E+01 0.938E-14   0.241E+00 -.635E-01 -.573E-07   -.224E-01 -.258E-01 -.823E-06
   0.308E+02 0.483E+01 0.483E-05   -.308E+02 -.480E+01 -.267E-14   -.233E+00 -.497E-01 -.564E-06   -.508E-02 0.264E-01 -.442E-05
   0.392E+02 0.792E+01 0.277E-05   -.391E+02 -.822E+01 0.160E-13   -.665E+00 -.730E-01 -.596E-06   -.248E-01 0.393E-01 -.236E-05
   0.389E+02 -.782E+01 -.133E-06   -.391E+02 0.822E+01 0.151E-13   -.487E+00 0.934E-01 -.135E-06   0.707E-02 -.368E-01 0.195E-06
 -----------------------------------------------------------------------------------------------
   0.246E+00 0.435E-01 -.237E-05   -.163E-12 0.178E-14 -.248E-13   -.258E+00 -.451E-01 -.492E-06   0.116E-01 0.183E-02 0.244E-05
 
 
 POSITION                                       TOTAL-FORCE (eV/Angst)
 -----------------------------------------------------------------------------------
      0.00000      0.00000      0.00000        -0.110483     -0.061518      0.000000
      0.00000      2.00000      2.00000        -0.167138     -0.075620     -0.000000
      0.00000      4.00000      0.00000        -0.077980      0.066330     -0.000000
      0.00000      6.00000      2.00000        -0.029646      0.063106      0.000000
      2.00000      0.00000      2.00000         0.098405     -0.084136     -0.000000
      2.00000      2.00000      0.00000         0.159533      0.040158      0.000000
      2.00000      4.00000      2.00000         0.165280      0.068194     -0.000000
      4.00000      0.00000      0.00000         0.053168      0.017087      0.000000
      6.00000      4.00000      2.00000        -0.087109     -0.014236     -0.000000
      2.00000      6.00000      0.00000         0.523427     -0.213963      0.000000
      4.00000      2.00000      2.00000         0.584457      0.365140      0.000000
      4.00000      4.00000      0.00000         0.125994      0.100621     -0.000000
      4.00000      6.00000      2.00000         0.229726     -0.409432     -0.000000
      6.00000      0.00000      2.00000        -0.308224      0.011223     -0.000000
      6.00000      2.00000      0.00000        -0.545000     -0.337919     -0.000000
      6.00000      6.00000      0.00000        -0.614410      0.464965     -0.000000
 -----------------------------------------------------------------------------------
    total drift:                               -0.000104      0.000299     -0.000000


--------------------------------------------------------------------------------------------------------



  FREE ENERGIE OF THE ION-ELECTRON SYSTEM (eV)
  ---------------------------------------------------
  free  energy   TOTEN  =       -66.45870868 eV

  energy  without entropy=      -66.45949131  energy(sigma->0) =      -66.45896956
 


--------------------------------------------------------------------------------------------------------


    POTLOK:  cpu time    0.0690: real time    0.0723


--------------------------------------------------------------------------------------------------------


     LOOP+:  cpu time 2608.4025: real time 2612.8751
    4ORBIT:  cpu time    0.0000: real time    0.0000

 total amount of memory used by VASP on root node   659556. kBytes
========================================================================

   base      :      30000. kBytes
   nonl-proj :      91700. kBytes
   fftplans  :       3487. kBytes
   grid      :       5690. kBytes
   one-center:         15. kBytes
   wavefun   :     528664. kBytes
 
  
  
 General timing and accounting informations for this job:
 ========================================================
  
                  Total CPU time used (sec):     2648.944
                            User time (sec):     2638.294
                          System time (sec):       10.650
                         Elapsed time (sec):     2654.386
  
                   Maximum memory used (kb):      686560.
                   Average memory used (kb):           0.
  
                          Minor page faults:        17320
                          Major page faults:            0
                 Voluntary context switches:        25631
