BEGIN_CFG
 Size
    53
 Supercell
         9.524572     -0.000000     -0.000001
        -0.000000      9.524583     -0.000000
        -0.000001      0.000000      9.524594
 AtomData:  id type       cartes_x      cartes_y      cartes_z           fx          fy          fz
             1    0       0.000000      0.000005      3.219388    -0.000018   -0.000042   -0.000012
             2    0       0.000001      0.000003      6.305208    -0.000025   -0.000030    0.000016
             3    0       0.000002      3.219384      0.000002    -0.000025    0.000003   -0.000030
             4    0       0.000000      3.175782      3.175786    -0.000003    0.000016    0.000003
             5    0       0.000001      3.175783      6.348810    -0.000011    0.000008    0.000009
             6    0       0.000000      6.305203      0.000002    -0.000022   -0.000001   -0.000029
             7    0      -0.000000      6.348804      3.175786    -0.000002    0.000003   -0.000004
             8    0      -0.000000      6.348803      6.348808     0.000002    0.000012    0.000025
             9    0       3.219377      0.000002      0.000000     0.000021   -0.000002   -0.000008
            10    0       3.175777      0.000002      3.175784     0.000001   -0.000004    0.000009
            11    0       3.175777      0.000002      6.348811     0.000005   -0.000003   -0.000014
            12    0       3.175777      3.175783      0.000000     0.000012   -0.000001   -0.000002
            13    0       3.167840      3.167844      3.167846    -0.000020    0.000002    0.000010
            14    0       3.167840      3.167846      6.356749    -0.000022   -0.000018   -0.000013
            15    0       3.175777      6.348805      0.000001     0.000022   -0.000012   -0.000010
            16    0       3.167840      6.356743      3.167846    -0.000018   -0.000008   -0.000007
            17    0       3.167841      6.356741      6.356746    -0.000014    0.000013    0.000015
            18    0       6.305196      0.000002      0.000001    -0.000020   -0.000003   -0.000006
            19    0       6.348794      0.000003      3.175785     0.000003   -0.000010    0.000004
            20    0       6.348794      0.000002      6.348810     0.000002    0.000002   -0.000013
            21    0       6.348795      3.175783      0.000001    -0.000009    0.000002   -0.000003
            22    0       6.356732      3.167845      3.167847     0.000014   -0.000006   -0.000003
            23    0       6.356731      3.167846      6.356748     0.000017   -0.000017   -0.000007
            24    0       6.348795      6.348803      0.000001    -0.000012   -0.000005    0.000001
            25    0       6.356731      6.356741      3.167848     0.000014    0.000007   -0.000014
            26    0       6.356731      6.356740      6.356746     0.000000    0.000009    0.000004
            27    0       1.552354      1.552359      1.552358     0.000002   -0.000013   -0.000006
            28    0       1.593924      1.593929      4.762298     0.000051    0.000037    0.000000
            29    0       1.552354      1.552357      7.972236    -0.000003    0.000008    0.000013
            30    0       1.593925      4.762294      1.593929     0.000030   -0.000001    0.000042
            31    0       1.590194      4.762295      4.762298    -0.000022   -0.000020   -0.000016
            32    0       1.593928      4.762294      7.930664    -0.000005   -0.000001   -0.000012
            33    0       1.552353      7.972229      1.552356    -0.000003    0.000014    0.000025
            34    0       1.593927      7.930656      4.762297     0.000011   -0.000008   -0.000003
            35    0       1.552356      7.972227      7.972236    -0.000028    0.000003   -0.000006
            36    0       4.762285      1.593929      1.593930     0.000004    0.000016    0.000005
            37    0       4.762286      1.590198      4.762298    -0.000010   -0.000030   -0.000002
            38    0       4.762286      1.593930      7.930663    -0.000004    0.000005    0.000003
            39    0       4.762286      4.762293      1.590199    -0.000006    0.000001   -0.000042
            40    0       4.762284      4.762292      4.762296     0.000006    0.000000    0.000001
            41    0       4.762286      4.762293      7.934396    -0.000009    0.000007    0.000051
            42    0       4.762286      7.930656      1.593931     0.000004   -0.000006   -0.000002
            43    0       4.762286      7.934389      4.762297    -0.000004    0.000040    0.000003
            44    0       4.762287      7.930655      7.930662    -0.000014    0.000000    0.000009
            45    0       7.972217      1.552358      1.552358     0.000006   -0.000004   -0.000002
            46    0       7.930646      1.593931      4.762298    -0.000031    0.000010    0.000001
            47    0       7.972217      1.552358      7.972236     0.000013    0.000000    0.000001
            48    0       7.930645      4.762293      1.593931    -0.000009    0.000001    0.000008
            49    0       7.934378      4.762294      4.762297     0.000028   -0.000016   -0.000010
            50    0       7.930642      4.762294      7.930662     0.000025   -0.000009    0.000012
            51    0       7.972216      7.972227      1.552358     0.000020    0.000012    0.000004
            52    0       7.930643      7.930654      4.762298     0.000009    0.000017   -0.000011
            53    0       7.972213      7.972225      7.972233     0.000047    0.000021    0.000010
 Energy
       -576.016869821422
 PlusStress:  xx          yy          zz          yz          xz          xy
         0.00067    -0.00006    -0.00080     0.00003     0.00011     0.00005
 Feature   EFS_by	VASP
 Feature   from	relaxation_OK
 Feature   min_dist	2.731622
 Feature   mindist	2.546341
END_CFG

BEGIN_CFG
 Size
    54
 Supercell
         9.756549     -0.403957     -0.229802
        -0.420062     10.658559      0.272898
        -0.249407      0.280944      9.863802
 AtomData:  id type       cartes_x      cartes_y      cartes_z           fx          fy          fz
             1    0      -0.074505     10.276223      8.494509     0.000001    0.000002    0.000011
             2    0       0.153864      2.879275      0.493575    -0.000027    0.000025    0.000000
             3    0       4.624533      8.611655      2.016869    -0.000006    0.000009   -0.000015
             4    0       3.363124      7.060358      9.140261    -0.000009    0.000042    0.000020
             5    0       8.328931      4.661750      7.929628    -0.000006    0.000026   -0.000020
             6    0       7.283027      2.775699      5.402015     0.000004    0.000010   -0.000004
             7    0       0.553059     10.555635      1.522694    -0.000021   -0.000009    0.000046
             8    0       5.983679      4.049313      3.271810     0.000023   -0.000028   -0.000001
             9    0       4.982541      8.035907      6.940272    -0.000046    0.000006    0.000011
            10    0       7.519971      9.556145      2.751545     0.000009    0.000009    0.000007
            11    0       4.392949      1.684256      4.465538     0.000002   -0.000064   -0.000061
            12    0       4.072657      2.804043      1.636088    -0.000014    0.000017   -0.000030
            13    0       5.861891      5.187696      6.365953    -0.000014   -0.000004   -0.000020
            14    0       1.649805      2.153149      3.092583    -0.000012   -0.000039    0.000036
            15    0       1.946227      7.645892      1.658024     0.000039    0.000028   -0.000029
            16    0       2.358907      8.520529      4.397476     0.000018   -0.000006    0.000064
            17    0       2.102876      8.798330      7.115996    -0.000015    0.000022    0.000056
            18    0       0.745255      3.808642      5.507825    -0.000000    0.000067   -0.000011
            19    0       8.991512      0.936007      4.399822     0.000012   -0.000041    0.000026
            20    0      -0.361004      9.513153      5.692984    -0.000009   -0.000049    0.000001
            21    0       4.417606      5.694674      1.597404    -0.000027    0.000008    0.000024
            22    0       8.113001      0.381647     -0.164342     0.000010    0.000050    0.000001
            23    0       2.003892      4.733668      1.229598     0.000031   -0.000020    0.000003
            24    0       3.549022      3.195460      6.644509     0.000054   -0.000042   -0.000032
            25    0       6.820554      6.758839      2.282100    -0.000003   -0.000017    0.000047
            26    0       3.363367      4.250110      4.044171    -0.000021   -0.000005    0.000050
            27    0       4.177675      4.289548      9.024602     0.000019   -0.000058   -0.000054
            28    0       1.457707      4.628801      8.235347     0.000030    0.000001    0.000002
            29    0       8.188348      5.237118      4.338474    -0.000029   -0.000035    0.000054
            30    0       5.249330      0.829106      0.126444    -0.000012   -0.000026   -0.000041
            31    0       0.568992      7.252060      9.097507    -0.000016    0.000011    0.000004
            32    0       1.836755      1.014866      6.023057    -0.000045    0.000022    0.000022
            33    0       8.931572      3.161461      2.832172     0.000021   -0.000009    0.000010
            34    0       2.278039      1.858464      9.013378    -0.000009    0.000005    0.000045
            35    0       7.107326      7.700474      5.062920     0.000003    0.000059    0.000008
            36    0       0.219283      6.739110      6.254863    -0.000052   -0.000010   -0.000006
            37    0       4.480780      0.308759      7.162732    -0.000002   -0.000029   -0.000005
            38    0       8.565695      8.099225      0.440748    -0.000056    0.000009   -0.000031
            39    0       5.096784      9.744145      4.641673     0.000031    0.000010   -0.000049
            40    0       2.596024      9.777050      9.738520     0.000018   -0.000011   -0.000032
            41    0       9.059356      5.344931      1.148346     0.000008   -0.000030    0.000004
            42    0       6.967565      3.346427      0.567286     0.000029    0.000018   -0.000022
            43    0       6.529413      1.313314      2.643074     0.000017    0.000011   -0.000082
            44    0       3.562740      0.071177      2.290188     0.000043    0.000009   -0.000030
            45    0       6.303781      2.483440      7.900947     0.000014    0.000017   -0.000007
            46    0       6.963779     10.432949      6.931462     0.000017    0.000013    0.000017
            47    0       4.561948      6.769120      4.179198     0.000040    0.000019    0.000006
            48    0       9.284269      1.925077      7.351452     0.000029    0.000031   -0.000003
            49    0       7.803947      7.686950      7.640659    -0.000044   -0.000008    0.000027
            50    0       6.219059      6.267471      9.317275    -0.000026   -0.000017    0.000004
            51    0       3.019268      6.036261      6.365580    -0.000002   -0.000043    0.000005
            52    0      -0.304452      8.012827      3.359619    -0.000038    0.000002   -0.000007
            53    0       5.622429      9.141984      9.461960    -0.000026    0.000045    0.000039
            54    0       1.293496      5.850334      3.727325     0.000065   -0.000002   -0.000055
 Energy
       -580.183007221898
 PlusStress:  xx          yy          zz          yz          xz          xy
        -0.00019    -0.00064     0.00048     0.00058     0.00031    -0.00013
 Feature   EFS_by	VASP
 Feature   from	relaxation_OK
 Feature   min_dist	2.623895
 Feature   mindist	2.092971
END_CFG

BEGIN_CFG
 Size
    53
 Supercell
         9.524585     -0.000082     -0.000040
         0.000089      9.524584      0.000020
         0.000038     -0.000018      9.524582
 AtomData:  id type       cartes_x      cartes_y      cartes_z           fx          fy          fz
             1    0       1.550485      1.550443      1.684299    -0.000027    0.000008    0.000007
             2    0       9.459675      9.459464      6.404484    -0.000019   -0.000001   -0.000004
             3    0       9.497426      3.144828      0.089822    -0.000001   -0.000011    0.000001
             4    0       9.501175      3.144825      3.258180     0.000021   -0.000018    0.000020
             5    0       9.501187      3.144817      6.446044     0.000022   -0.000009   -0.000007
             6    0       9.501192      6.313189      0.089829    -0.000008    0.000021   -0.000005
             7    0       9.459631      6.354756      3.299764     0.000015    0.000019   -0.000008
             8    0       1.602094      7.907180      4.852156     0.000010   -0.000018   -0.000010
             9    0       1.550508      1.550430      8.019987    -0.000000    0.000025   -0.000008
            10    0       3.145012      9.501099      3.258223     0.000009   -0.000015    0.000011
            11    0       3.145022      9.501093      6.446082     0.000021   -0.000006   -0.000005
            12    0       3.144941      3.144879      0.089847     0.000005    0.000016    0.000014
            13    0       3.144953      3.144876      3.261943     0.000001    0.000009    0.000022
            14    0       3.144964      3.144868      6.442333    -0.000012    0.000011   -0.000012
            15    0       3.144971      6.316981      0.089856     0.000009   -0.000011   -0.000007
            16    0       3.144983      6.313239      3.258216    -0.000011   -0.000009    0.000008
            17    0       3.144993      6.313230      6.446076     0.000003    0.000015    0.000003
            18    0       6.313363      9.501075      0.089849    -0.000001    0.000015   -0.000005
            19    0       6.354952      9.459494      3.299787    -0.000029    0.000012    0.000004
            20    0       6.354962      9.459490      6.404495    -0.000006   -0.000003   -0.000006
            21    0       6.317039      3.144853      0.089835    -0.000006    0.000008   -0.000006
            22    0       6.313317      3.144848      3.258197    -0.000027    0.000006    0.000002
            23    0       6.313329      3.144844      6.446053     0.000007   -0.000020    0.000020
            24    0       6.313331      6.313217      0.089841     0.000002   -0.000010   -0.000008
            25    0       6.354922      6.354788      3.299782    -0.000022   -0.000031   -0.000030
            26    0       6.354928      6.354773      6.404490     0.000026    0.000042    0.000010
            27    0       3.145001      9.497365      0.089861     0.000000    0.000017    0.000005
            28    0       1.558431      1.558377      4.852141     0.000013    0.000018    0.000007
            29    0       9.501222      9.501049      0.089834    -0.000012   -0.000008    0.000030
            30    0       1.550513      4.739342      1.684302     0.000005   -0.000005    0.000039
            31    0       1.558461      4.731400      4.852149     0.000016   -0.000027   -0.000006
            32    0       1.550537      4.739331      8.019994     0.000008   -0.000014   -0.000016
            33    0       1.558481      7.907186      1.676376    -0.000017   -0.000009    0.000001
            34    0       9.459659      9.459470      3.299773     0.000017   -0.000014   -0.000037
            35    0       1.558507      7.907173      8.027939    -0.000020   -0.000010   -0.000019
            36    0       4.739383      1.550415      1.684286    -0.000002    0.000010    0.000015
            37    0       4.731456      1.558350      4.852130    -0.000008   -0.000014   -0.000015
            38    0       4.739407      1.550403      8.019969     0.000000    0.000008    0.000017
            39    0       4.739412      4.739315      1.684294    -0.000010   -0.000005    0.000000
            40    0       4.731485      4.731370      4.852137    -0.000015   -0.000009   -0.000020
            41    0       4.739432      4.739297      8.019976     0.000021    0.000036    0.000036
            42    0       4.731504      7.907158      1.676365    -0.000008   -0.000006   -0.000010
            43    0       4.687910      7.907150      4.852146     0.000012    0.000025   -0.000014
            44    0       4.731527      7.907146      8.027921     0.000003   -0.000011    0.000004
            45    0       7.907224      1.558328      1.676339     0.000011   -0.000019   -0.000032
            46    0       7.907241      1.601924      4.852116    -0.000022    0.000006    0.000016
            47    0       7.907250      1.558315      8.027898    -0.000003    0.000003   -0.000011
            48    0       7.907250      4.731349      1.676343     0.000017    0.000009   -0.000011
            49    0       7.907266      4.687742      4.852122     0.000006   -0.000005    0.000013
            50    0       7.907279      4.731336      8.027904    -0.000004    0.000011   -0.000000
            51    0       7.907282      7.907129      1.632747     0.000022    0.000008   -0.000006
            52    0       9.459645      6.354753      6.404476    -0.000012   -0.000011    0.000007
            53    0       7.907308      7.907120      8.071511     0.000001   -0.000032    0.000008
 Energy
       -576.016869821730
 PlusStress:  xx          yy          zz          yz          xz          xy
        -0.00030    -0.00019    -0.00010    -0.00014     0.00009    -0.00046
 Feature   EFS_by	VASP
 Feature   from	relaxation_OK
 Feature   min_dist	2.731625
 Feature   mindist	2.097031
END_CFG

BEGIN_CFG
 Size
    53
 Supercell
         9.524598      0.000003      0.000002
         0.000003      9.524597     -0.000005
         0.000002     -0.000005      9.524552
 AtomData:  id type       cartes_x      cartes_y      cartes_z           fx          fy          fz
             1    0       0.000007      9.524595      3.219371    -0.000015   -0.000021    0.000013
             2    0       9.524598      0.000003      6.305189     0.000000   -0.000014   -0.000038
             3    0       0.000004      3.219388      9.524549    -0.000001   -0.000018    0.000005
             4    0       9.524598      3.175787      3.175773     0.000027    0.000021    0.000003
             5    0       9.524597      3.175787      6.348784     0.000029    0.000013   -0.000010
             6    0       9.524598      6.305214      0.000003     0.000005    0.000004   -0.000025
             7    0       9.524599      6.348812      3.175772     0.000022    0.000011    0.000015
             8    0       9.524600      6.348815      6.348786     0.000006   -0.000024   -0.000019
             9    0       3.219394      0.000006      0.000006    -0.000063   -0.000014   -0.000019
            10    0       3.175790      9.524596      3.175767    -0.000013   -0.000003    0.000011
            11    0       3.175786     -0.000001      6.348787     0.000008   -0.000010   -0.000025
            12    0       3.175792      3.175783      9.524550    -0.000032   -0.000008    0.000014
            13    0       3.167847      3.167845      3.167831     0.000017    0.000036    0.000015
            14    0       3.167851      3.167845      6.356717    -0.000001    0.000001    0.000014
            15    0       3.175787      6.348815     -0.000002     0.000004   -0.000012   -0.000009
            16    0       3.167850      6.356747      3.167832     0.000005    0.000003   -0.000011
            17    0       3.167846      6.356749      6.356719     0.000041    0.000009    0.000024
            18    0       6.305211      0.000003      0.000005     0.000020    0.000008    0.000004
            19    0       6.348818      9.524595      3.175768    -0.000003    0.000003   -0.000006
            20    0       6.348816      9.524595      6.348778     0.000001    0.000004   -0.000001
            21    0       6.348817      3.175784      9.524550     0.000005   -0.000018    0.000018
            22    0       6.356756      3.167845      3.167832    -0.000045    0.000026   -0.000004
            23    0       6.356751      3.167845      6.356715    -0.000001    0.000010    0.000026
            24    0       6.348816      6.348808      9.524550     0.000001    0.000007    0.000004
            25    0       6.356751      6.356747      3.167832    -0.000007    0.000011   -0.000007
            26    0       6.356750      6.356749      6.356716     0.000001    0.000003    0.000025
            27    0       1.552358      1.552360      1.552355     0.000014   -0.000001   -0.000036
            28    0       1.593934      1.593931      4.762279    -0.000007   -0.000005   -0.000011
            29    0       1.552363      1.552360      7.972201    -0.000004   -0.000021    0.000019
            30    0       1.593934      4.762302      1.593921     0.000006   -0.000032    0.000018
            31    0       1.590198      4.762299      4.762278    -0.000018   -0.000021   -0.000019
            32    0       1.593936      4.762299      7.930626    -0.000005   -0.000018    0.000006
            33    0       1.552364      7.972238      1.552354    -0.000013    0.000006   -0.000029
            34    0       1.593936      7.930662      4.762279    -0.000017    0.000029   -0.000032
            35    0       1.552358      7.972245      7.972207     0.000020   -0.000040   -0.000025
            36    0       4.762301      1.593932      1.593926     0.000018    0.000019    0.000007
            37    0       4.762300      1.590191      4.762273     0.000000    0.000030    0.000021
            38    0       4.762303      1.593928      7.930628     0.000005    0.000024    0.000000
            39    0       4.762301      4.762297      1.590181     0.000003    0.000010    0.000065
            40    0       4.762298      4.762297      4.762274     0.000017   -0.000012   -0.000010
            41    0       4.762301      4.762294      7.934359     0.000005    0.000025    0.000019
            42    0       4.762301      7.930664      1.593922     0.000016    0.000004    0.000020
            43    0       4.762300      7.934397      4.762272     0.000009    0.000035    0.000022
            44    0       4.762303      7.930667      7.930629     0.000003   -0.000040   -0.000031
            45    0       7.972250      1.552359      1.552354    -0.000064   -0.000000   -0.000031
            46    0       7.930668      1.593933      4.762277    -0.000003   -0.000022    0.000011
            47    0       7.972242      1.552361      7.972202    -0.000019   -0.000022    0.000015
            48    0       7.930669      4.762302      1.593924    -0.000019   -0.000017    0.000005
            49    0       7.934401      4.762299      4.762276     0.000031    0.000004    0.000011
            50    0       7.930666      4.762300      7.930625     0.000010   -0.000011    0.000018
            51    0       7.972244      7.972239      1.552356    -0.000025    0.000011   -0.000034
            52    0       7.930668      7.930661      4.762279     0.000015    0.000044   -0.000026
            53    0       7.972242      7.972239      7.972201     0.000008   -0.000005    0.000007
 Energy
       -576.016869814522
 PlusStress:  xx          yy          zz          yz          xz          xy
        -0.00082    -0.00076     0.00231     0.00069    -0.00033    -0.00042
 Feature   EFS_by	VASP
 Feature   from	relaxation_OK
 Feature   min_dist	2.731619
 Feature   mindist	2.488084
END_CFG

BEGIN_CFG
 Size
    54
 Supercell
         9.524862      0.000000      0.000019
        -0.000003      9.524864     -0.000011
        -0.000018      0.000013      9.524866
 AtomData:  id type       cartes_x      cartes_y      cartes_z           fx          fy          fz
             1    0      -0.000018      9.524877      9.524854    -0.000015    0.000024    0.000025
             2    0       9.524852      9.524867      3.174967     0.000028    0.000042   -0.000013
             3    0      -0.000010      0.000009      6.349913    -0.000005    0.000024   -0.000009
             4    0       9.524843      3.174965      9.524881     0.000003    0.000002    0.000016
             5    0      -0.000002      3.174963      3.174951    -0.000044   -0.000034   -0.000006
             6    0       9.524846      3.174962      6.349926     0.000017    0.000002    0.000004
             7    0       9.524859      6.349909      0.000012     0.000026    0.000009    0.000030
             8    0      -0.000006      6.349912      3.174951     0.000010    0.000006   -0.000035
             9    0       9.524847      6.349921      6.349924     0.000018   -0.000023    0.000004
            10    0       3.174958      0.000002      0.000011    -0.000032   -0.000003   -0.000037
            11    0       3.174954      0.000006      3.174964    -0.000020    0.000016    0.000020
            12    0       3.174942      0.000011      6.349921    -0.000000   -0.000006   -0.000027
            13    0       3.174954      3.174957      0.000005     0.000001   -0.000015   -0.000010
            14    0       3.174946      3.174965      3.174960     0.000040   -0.000049   -0.000013
            15    0       3.174940      3.174969      6.349911     0.000038   -0.000037    0.000030
            16    0       3.174952      6.349909      0.000001    -0.000012    0.000015   -0.000017
            17    0       3.174946      6.349917      3.174956    -0.000008   -0.000002    0.000015
            18    0       3.174941      6.349919      6.349913    -0.000024    0.000006    0.000002
            19    0       6.349906      9.524862      0.000005     0.000013   -0.000002   -0.000008
            20    0       6.349902      9.524866      3.174956    -0.000029    0.000031    0.000037
            21    0       6.349898      0.000010      6.349924    -0.000001   -0.000026    0.000004
            22    0       6.349888      3.174972      9.524871     0.000027   -0.000034    0.000034
            23    0       6.349905      3.174961      3.174963    -0.000035   -0.000016    0.000021
            24    0       6.349894      3.174964      6.349919     0.000022    0.000023    0.000017
            25    0       6.349907      6.349905      0.000012     0.000001    0.000068   -0.000057
            26    0       6.349904      6.349917      3.174965    -0.000021   -0.000006   -0.000011
            27    0       6.349896      6.349918      6.349920     0.000009    0.000015   -0.000003
            28    0       1.587474      1.587475      1.587483     0.000010    0.000047   -0.000024
            29    0       1.587467      1.587489      4.762435     0.000017   -0.000045   -0.000001
            30    0       1.587467      1.587492      7.937388    -0.000031   -0.000028    0.000031
            31    0       1.587475      4.762434      1.587472    -0.000032    0.000024    0.000032
            32    0       1.587465      4.762441      4.762434     0.000019    0.000011   -0.000014
            33    0       1.587456      4.762440      7.937385     0.000046    0.000031    0.000024
            34    0       1.587473      7.937394      1.587475    -0.000004   -0.000049   -0.000014
            35    0       1.587464      7.937398      4.762429     0.000044   -0.000026    0.000008
            36    0       1.587457      7.937399      7.937384     0.000046   -0.000005    0.000017
            37    0       4.762433      1.587482      1.587482    -0.000030    0.000006    0.000067
            38    0       4.762425      1.587486      4.762445    -0.000020   -0.000008   -0.000055
            39    0       4.762418      1.587487      7.937398    -0.000022    0.000034   -0.000011
            40    0       4.762427      4.762437      1.587487     0.000002   -0.000021   -0.000020
            41    0       4.762424      4.762444      4.762436    -0.000014   -0.000028    0.000015
            42    0       4.762414      4.762443      7.937393     0.000010    0.000015   -0.000001
            43    0       4.762426      7.937388      1.587481     0.000017   -0.000001   -0.000007
            44    0       4.762420      7.937394      4.762443     0.000013    0.000008   -0.000061
            45    0       4.762413      7.937400      7.937392     0.000027   -0.000037    0.000004
            46    0       7.937383      1.587479      1.587492     0.000004    0.000016   -0.000005
            47    0       7.937377      1.587485      4.762445     0.000002   -0.000000    0.000015
            48    0       7.937367      1.587485      7.937400     0.000033    0.000035    0.000037
            49    0       7.937377      4.762432      1.587487     0.000059    0.000022    0.000015
            50    0       7.937378      4.762439      4.762444    -0.000027    0.000002    0.000015
            51    0       7.937373      4.762444      7.937400    -0.000039   -0.000015   -0.000007
            52    0       7.937384      7.937389      1.587491    -0.000021   -0.000010   -0.000064
            53    0       7.937379      7.937394      4.762443    -0.000054    0.000007   -0.000000
            54    0       7.937373      7.937400      7.937400    -0.000058   -0.000018   -0.000009
 Energy
       -588.176879664750
 PlusStress:  xx          yy          zz          yz          xz          xy
        -0.00080    -0.00093    -0.00110    -0.00013    -0.00009     0.00022
 Feature   EFS_by	VASP
 Feature   from	relaxation_OK
 Feature   min_dist	2.749584
 Feature   mindist	2.277992
END_CFG

BEGIN_CFG
 Size
    54
 Supercell
         9.524857      0.000001      0.000001
         0.000001      9.524849     -0.000001
         0.000001     -0.000001      9.524878
 AtomData:  id type       cartes_x      cartes_y      cartes_z           fx          fy          fz
             1    0       0.000003     -0.000000      9.524877    -0.000006   -0.000012    0.000019