BEGIN_CFG
 Size
    54
 Supercell
         9.450120      0.000000      0.000000
         0.000000      9.450120      0.000000
         0.000000      0.000000      9.450120
 AtomData:  id type       cartes_x      cartes_y      cartes_z           fx          fy          fz
             1    0       1.571700      3.842800      4.336460    -2.555843    2.033182    0.049536
             2    0       6.989500      3.469960      7.534450    -2.023154    1.123222   -0.941269
             3    0       5.729470      5.669970      2.602990     1.069314   -4.196137   -4.047073
             4    0       5.125930      0.041550      2.581760    -0.142104   -1.992818   -1.725573
             5    0       9.422730      8.866000      8.045500    -3.485827   -4.281537    0.919133
             6    0       9.246910      5.279280      8.866390     0.484769   -0.740006   -2.966210
             7    0       4.172290      7.331650      1.335490    -1.834549    1.613373    1.210653
             8    0       0.816710      4.604540      1.617900     3.731095   -4.112372   -0.393668
             9    0       6.925950      7.283150      3.679380     2.758496    4.242840   -0.535720
            10    0       7.103740      6.960240      8.470620     1.480153   -1.250686    0.257187
            11    0       3.025150      8.835100      6.252460     1.609764   -0.921804    0.834252
            12    0       1.370230      1.049800      7.844860     3.389144   -4.499864    0.476417
            13    0       2.896390      5.612050      5.704000    -0.237175    1.296061    1.529079
            14    0       3.420030      2.240390      2.130500     0.420914    1.153980    1.322211
            15    0       2.481240      4.756790      8.310050    -1.152663    1.187313   -1.872941
            16    0       4.546580      6.851580      4.031580    -4.367294    3.275120    2.884268
            17    0       4.725600      8.152700      8.665760    -0.223343   -2.062037   -1.877302
            18    0       1.444580      2.951550      7.068670    -0.278520    6.830461   -3.248303
            19    0       1.054930      1.629830      2.927960    -1.432875   -0.355368   -2.656915
            20    0       2.171350      6.476190      3.009630     0.617774   -0.332760   -0.114873
            21    0       3.283170      5.174840      1.024590     1.993208   -2.432205    1.316317
            22    0       4.864510      1.556870      4.156450    -1.877253    2.032842    3.383571
            23    0       8.532680      3.343770      2.449880     2.957111   -2.535182   -2.245530
            24    0       1.119400      7.372590      6.323690     0.150609   -1.099281   -1.188545
            25    0       0.145470      7.895470      3.281390     0.151349    5.053987    0.197257
            26    0       6.322790      3.054010      2.612850    -7.289904   -1.512588   -2.477607
            27    0       6.466540      1.826740      0.506750     1.199632   -0.570141   -1.003585
            28    0       4.732240      3.350270      8.596940    -1.274759    0.309676    3.651837
            29    0       7.347080      3.815520      4.448160     1.752361   -1.985187    3.538587
            30    0       4.191370      0.862330      0.138030    -3.154258   -1.417500    4.397552
            31    0       8.597820      2.358280      8.780920     2.265217   -0.239682    2.035841
            32    0       6.626850      0.754930      5.598010     1.334681    0.003423   -1.875677
            33    0       2.977240      8.895570      3.828570    -1.626223    0.045280   -1.379929
            34    0       5.880560      7.799360      6.109480    -4.649506    1.502699    1.612943
            35    0       8.778580      4.922850      6.491700     1.769730    0.064862   -1.521064
            36    0       9.122180      5.729870      3.613910    -1.554645   -3.724550    3.479250
            37    0       4.778200      1.092560      7.536980    -0.572043    0.841213   -6.891252
            38    0       6.734280      7.971020      1.490110     2.570309    0.100074   -4.983867
            39    0       3.917520      4.231550      3.816440     0.570668   -0.773917   -2.164665
            40    0       5.067840      5.495530      7.681700    -1.503431    2.784260    1.310544
            41    0       7.179700      4.745050      0.815630    -0.048885    0.650947   -2.567199
            42    0       6.238250      5.407970      5.465860    -2.729262   -0.480792    2.631946
            43    0       6.875220      9.443350      7.870420     3.377497    0.904011    2.388592
            44    0       2.247650      1.628620      4.926610     3.262495   -0.043320    3.606333
            45    0       4.166080      3.371080      6.074950     0.444014   -0.295899    0.814212
            46    0       8.463070      2.250780      6.105060     2.891059   -2.161103   -0.453682
            47    0       2.017280      2.553520      0.227360    -0.647572    0.654124    1.184638
            48    0       7.474830      0.820810      2.783800     1.513625   -0.670902    3.224396
            49    0       0.272680      0.245670      4.861260    -2.076250   -0.821405    3.015816
            50    0       8.063280      7.208000      5.650100     3.580966    2.470265    3.255900
            51    0       2.216480      7.240440      8.573070    -0.184911    0.128471    0.950002
            52    0       1.791530      9.110290      1.181660     3.480273   -1.061114   -0.438827
            53    0       9.091210      0.273790      1.148440    -2.142970    0.767849   -2.391654
            54    0       0.053800      6.719740      1.241060    -1.761009    5.500619   -3.515337
 Energy
       -530.144868680000
 PlusStress:  xx          yy          zz          yz          xz          xy
       158.38923   174.30983   175.67408    16.43199   -13.18016     1.25150
 Feature   EFS_by	VASP
 Feature   mindist	2.055396
END_CFG

BEGIN_CFG
 Size
    54
 Supercell
         9.450120      0.000000      0.000000
         0.000000      9.450120      0.000000
         0.000000      0.000000      9.450120
 AtomData:  id type       cartes_x      cartes_y      cartes_z           fx          fy          fz
             1    0       9.309020      0.063610      9.377220     0.664730    0.776707    1.021302
             2    0       0.128350      0.130600      3.495460    -1.545615   -0.392247   -2.999285
             3    0       9.318730      9.385240      6.374160    -0.176930    1.242636   -0.430825
             4    0       0.163580      3.364810      9.296080     0.776536   -2.634747    0.229639
             5    0       0.241020      3.286730      3.147660    -0.574567   -2.035391   -0.750698
             6    0       0.039290      3.241170      6.230520    -0.204565   -2.300441    0.294663
             7    0       9.374600      6.530850      0.015920    -0.686815    0.269044   -1.633830
             8    0       0.123150      6.424410      2.841660    -1.479062    0.055572    3.830583
             9    0       9.319920      6.465730      6.476020    -1.770125   -1.832640   -0.195241
            10    0       3.511790      0.296400      0.378250    -2.709890   -3.675848   -2.743906
            11    0       3.117510      9.161250      3.323820    -0.771322    0.426835   -1.301259
            12    0       3.317490      9.065050      6.089890    -3.111897    0.999587    2.087230
            13    0       3.222400      3.071580      0.147930    -1.087536    1.523006   -0.952220
            14    0       3.307750      2.861460      3.407170    -1.273355    1.489000   -0.956086
            15    0       3.188740      3.501560      6.687320    -1.559211   -1.492844   -2.365159
            16    0       3.128210      6.794610      0.010190     1.096295   -3.770154   -0.039633
            17    0       3.031330      5.793490      3.466570     0.735711    2.170315   -1.513992
            18    0       3.274850      6.231720      6.174070     0.096496    0.514405    0.854006
            19    0       6.236650      0.068330      9.181650    -0.178861    0.929190    2.035327
            20    0       6.375840      9.318150      3.301800    -1.567686    2.644545   -2.468644
            21    0       6.161560      9.449450      6.287770     2.218598   -0.899015    0.811887
            22    0       6.742190      3.331930      9.354120    -4.588328   -0.422451   -0.072894
            23    0       6.628800      3.043450      2.920230    -3.442808   -0.451310    0.098575
            24    0       6.210860      3.078930      6.090240     0.936398    0.236838    1.928852
            25    0       6.220060      6.360840      0.263510    -0.244492   -0.489477   -2.396245
            26    0       6.282990      5.970040      2.915080    -0.485228    1.258269    2.939397
            27    0       6.646840      6.431720      6.217250    -4.275698   -3.414971    2.016280
            28    0       1.658820      1.421360      1.737870    -0.757648    1.444330   -0.790149
            29    0       1.658900      1.516510      4.835380    -0.486357    0.495630    1.048713
            30    0       1.530140      1.391770      7.941220     0.262697    1.257535   -0.056647
            31    0       1.331340      5.027350      1.279520     5.812121   -2.458609    0.604863
            32    0       1.309350      4.681600      4.893950     1.660844    0.925317   -0.997809
            33    0       1.383000      5.246770      7.803410     2.548946   -2.221185    1.404510
            34    0       1.518740      7.921550      1.340060    -0.129952    2.504427    2.972496
            35    0       0.983020      7.664120      4.891090     4.368600    1.921171   -1.363874
            36    0       1.685760      8.133480      7.875000    -0.341305   -0.665399   -0.023919
            37    0       4.818550      1.673640      1.494300     2.414132   -0.227801    2.329954
            38    0       4.622310      1.225570      4.755160     1.304284    3.230492   -1.819398
            39    0       4.458320      1.587120      7.452870     0.959360   -0.517008    2.939651
            40    0       4.582200      4.467580      1.699110     0.076874    1.981860   -1.166576
            41    0       4.874660      4.525570      4.852470    -1.784242    1.426326   -2.011433
            42    0       4.830310      4.742610      7.862520     0.600984    0.689972    1.536956
            43    0       4.786680      7.854080      1.920140    -1.676456   -0.120200   -2.482895
            44    0       4.866350      7.765020      4.724490    -1.262738   -2.752004   -0.034305
            45    0       4.664650      7.773920      7.877390     1.152623    1.070771   -0.245452
            46    0       7.838990      1.718510      1.241750     2.533612   -2.206613    1.689723
            47    0       7.714200      1.582130      4.601600     2.306735   -0.569306    0.554261
            48    0       7.782840      1.741220      7.461170     0.715984   -2.021648    2.857531
            49    0       8.191230      4.847720      1.554700    -3.402528   -1.194547   -1.018396
            50    0       7.704910      4.539120      4.389380     2.731039    1.812335    2.700332
            51    0       8.031410      4.529690      7.802580    -1.456011    3.514545   -0.645943
            52    0       7.705080      7.936880      1.792930     1.746383    0.320002   -2.073671
            53    0       7.588400      7.780020      4.701140     4.212822    0.866087   -1.094450
            54    0       7.684530      7.860340      8.175410     1.098426    0.769107   -2.141897
 Energy
       -561.383181470000
 PlusStress:  xx          yy          zz          yz          xz          xy
        85.10664    84.02478    94.73752    -5.28329     1.08186    -4.97970
 Feature   EFS_by	VASP
 Feature   mindist	2.202267
END_CFG

BEGIN_CFG
 Size
    54
 Supercell
         9.450120      0.000000      0.000000
         0.000000      9.450120      0.000000
         0.000000      0.000000      9.450120
 AtomData:  id type       cartes_x      cartes_y      cartes_z           fx          fy          fz
             1    0       0.511160      3.117150      4.305600    -1.075943    0.252594   -1.623442
             2    0       6.124510      3.350460      7.604670     5.780730   -1.833869   -1.387247
             3    0       6.384140      5.643260      2.474640    -0.762154   -1.158244   -0.014162
             4    0       4.975550      9.436730      2.024810     0.859775    2.756592    2.421586
             5    0       0.915780      7.989460      8.221310    -5.263387    2.824106    2.308862
             6    0       0.271250      4.802260      8.734460    -3.536454    4.160691    2.462475
             7    0       4.801600      7.140980      1.383110    -1.271388   -2.027782   -2.093273
             8    0       0.839820      4.607190      1.906930     0.751862   -2.041448   -0.112113
             9    0       6.646460      7.941010      3.457360     1.899313   -0.068037    1.942970
            10    0       7.219380      6.232900      7.917760    -0.151851    1.669061    1.550655
            11    0       2.590740      8.380380      6.354330     3.397456    2.403258   -0.684288
            12    0       1.722600      1.059250      7.857180    -0.994067   -1.118975    2.444523
            13    0       1.988420      5.536230      4.712510     0.250687   -1.803226   -4.793058
            14    0       3.281280      1.892120      2.378660     1.926832    5.259103    0.313501
            15    0       2.459570      4.724980      8.354900     2.501318   -0.815194    1.409960
            16    0       4.072400      6.962580      3.895070     0.283160    0.728090   -0.139234
            17    0       5.302790      8.196350      8.258070     0.138553   -1.465996    1.714092
            18    0       0.985810      3.846120      6.535350     6.077147    2.631559    0.586590
            19    0       1.093080      1.109950      2.672740    -3.522461    3.301015    0.027927
            20    0       1.879490      6.833590      2.172770    -0.488292   -1.487158    7.037893
            21    0       3.581180      4.888860      1.513310    -0.315492   -0.884601    1.497127
            22    0       4.876150      2.041240      4.812200    -0.026344   -3.142937   -2.680868
            23    0       8.434620      2.782570      2.063840     1.103754    1.910439   -0.081443
            24    0       1.391370      6.550630      6.505200    -2.144917   -1.287107    2.568534
            25    0       0.094950      8.256440      3.403840    -2.130562   -1.080549    0.705133
            26    0       5.674630      2.773380      2.338260    -0.610607    1.393109    0.672977
            27    0       6.742850      1.481980      0.583430     0.339056    0.780632    0.336625
            28    0       4.705740      3.342920      0.015130    -1.296024    3.504765    1.571160
            29    0       6.791600      3.360940      4.743780     2.295600    1.389822   -0.360893
            30    0       4.501920      1.136150      9.004500    -2.035919   -2.551278    3.401129
            31    0       8.828720      2.555090      8.666640    -0.005548   -0.947621    8.823532
            32    0       7.304920      0.739750      5.709120    -2.863586    0.573124   -2.626270
            33    0       2.661580      9.238300      3.618390     3.394765   -3.383292    4.481547
            34    0       5.047460      8.103240      5.903930     2.495271   -0.506097   -1.281006
            35    0       8.666100      5.391270      5.995970    -1.807466    0.169941    1.169876
            36    0       8.337420      5.212050      3.706150     2.186575    1.504812   -2.338338
            37    0       4.400540      0.883250      6.830450     1.123871   -0.240400   -1.742299
            38    0       6.924280      8.309400      0.981740     3.265159   -0.631535   -0.798568
            39    0       4.166250      4.482480      4.220680     0.465548   -1.112680   -3.147703
            40    0       4.551060      5.650350      7.741240     2.649157    5.286335    1.843792
            41    0       7.351990      4.360340      0.330920    -0.597083    1.989135    0.761625
            42    0       6.265210      5.778520      5.404040    -1.900455    0.262834    0.402338
            43    0       7.402190      0.500270      7.957330    -0.646160   -2.246130    2.670625
            44    0       2.392860      1.963890      5.711280     4.067265    3.461021   -3.027326
            45    0       4.192340      3.826510      6.582980    -3.420397   -2.354784   -2.763456
            46    0       8.843030      2.435570      6.684030    -4.147203   -3.537964   -9.330149
            47    0       1.878110      2.570610      0.233040     0.121090    0.119355    1.927093
            48    0       7.532220      1.083910      3.407480     0.570534   -2.357065   -1.639386
            49    0       0.893030      0.513550      5.342300    -6.353380   -4.338566   -0.877442
            50    0       8.272440      8.195890      6.425830     1.030637   -3.656007   -0.405483
            51    0       2.561120      6.915490      0.071420     1.707614   -1.161927   -5.868730
            52    0       2.625050      8.943080      1.240700    -0.612487    3.153307   -4.356675
            53    0       9.360430      0.444100      0.805850    -1.104295   -2.309575   -2.140831
            54    0       9.109020      6.913240      1.200830    -1.598805    0.065344   -0.740463
 Energy
       -528.442870990000
 PlusStress:  xx          yy          zz          yz          xz          xy
       153.46291   174.31047   196.97074    23.25682     2.28025     9.53810
 Feature   EFS_by	VASP
 Feature   mindist	1.986261
END_CFG

BEGIN_CFG
 Size
    54
 Supercell
         9.450120      0.000000      0.000000
         0.000000      9.450120      0.000000
         0.000000      0.000000      9.450120
 AtomData:  id type       cartes_x      cartes_y      cartes_z           fx          fy          fz
             1    0       9.406120      0.013490      9.403540     0.787445    0.372966   -0.103479
             2    0       9.405140      9.438110      3.397000    -0.280766   -1.360845   -1.928067
             3    0       9.434940      0.064690      6.318590    -0.749539   -0.142570    0.681854
             4    0       0.181810      3.362510      9.290550    -1.634109   -2.314527    0.869748
             5    0       0.047520      2.830250      2.783560     0.720472    2.482708    2.465308
             6    0       0.112040      3.345240      6.179080    -2.050907   -2.611727    0.446115
             7    0       0.354430      6.372130      9.385340    -3.109724    1.414214   -0.307179
             8    0       0.062740      6.078620      2.883380    -0.847004    2.199864    2.880704
             9    0       9.423160      6.388310      6.472080    -0.682043    0.300101   -1.941149
            10    0       3.046670      9.169460      0.110820     2.031903    3.667290    0.051316
            11    0       3.285610      9.420330      3.208990    -0.850574   -1.907792   -0.607097
            12    0       3.118650      9.274380      6.268650     0.100990    1.354733    1.332933
            13    0       3.034860      3.257770      0.413220     2.193062   -0.702830   -4.850342
            14    0       3.298740      2.803910      3.006230    -1.599674    2.338383    2.666199
            15    0       3.329690      3.165790      6.265760    -3.930646    1.190679   -0.357562
            16    0       3.162310      6.350140      9.345240     0.865923   -1.119197    0.778220
            17    0       3.079960      6.255700      3.112270    -0.344752    0.264369    0.418328
            18    0       3.161800      6.152820      6.476090    -0.152717    0.711745   -1.329073
            19    0       6.420190      0.160690      0.212180    -1.655711   -1.946286   -2.428618
            20    0       6.043840      9.368250      3.646530     1.916886    0.459277   -3.602969
            21    0       6.136270      0.019850      6.356580     1.315833    0.281174    1.257973
            22    0       6.617780      3.161530      9.362230    -3.263730    2.724736   -1.101230
            23    0       6.388050      2.978430      2.886750     0.237106    1.238821    1.937125
            24    0       6.210250      2.957250      6.097800     1.750564    2.488519    0.830343
            25    0       6.232270      6.507900      9.418930     1.417813   -3.414404    1.216829
            26    0       5.928290      6.413150      3.359440     3.979077   -1.533687   -1.087044
            27    0       6.176800      6.325500      6.520130     1.155650   -0.939992   -2.204677
            28    0       1.764040      1.367310      1.733620    -2.036227    0.852593   -1.666850
            29    0       1.664160      1.353560      4.943760    -1.832502    1.918434   -1.817833
            30    0       1.660620      1.699760      8.030290    -0.804149   -0.590905   -0.745026
            31    0       1.739230      4.850540      1.399970    -1.773188    0.178169    3.053547
            32    0       1.448230      4.770720      4.854450     1.550907   -0.823743   -2.578151
            33    0       1.430310      4.768910      7.810350     3.420516    0.332243   -0.457721
            34    0       1.406560      8.076380      1.605510     1.075265   -2.350812    1.019572
            35    0       1.637870      7.642640      4.700610    -1.432665    1.486821    0.318390
            36    0       1.742040      8.131990      7.825230    -2.873431   -3.302244    0.531460
            37    0       4.844710      1.787940      1.285930    -0.020214   -2.553991    1.451463
            38    0       4.493330      1.514330      4.882720     2.882236   -0.195295   -1.295643
            39    0       4.328230      1.780460      7.854590     2.582367   -1.620671    1.997166
            40    0       4.855660      4.783200      1.725890     0.136156   -0.059615   -2.231319
            41    0       4.556190      4.521170      4.440270     1.352788    0.964616    1.952908
            42    0       4.745290      4.664920      7.833540     0.133029    0.152435    1.064268
            43    0       4.785470      7.752090      1.502640    -1.298651    2.234495    2.332813
            44    0       4.581680      7.762470      4.955870     0.209216   -0.572550   -0.630896
            45    0       4.921800      8.007780      8.094700    -2.998767    0.465681   -2.185719
            46    0       7.967910      1.659410      1.187030     1.329097   -0.707508    4.168906
            47    0       7.962010      1.608850      4.588560    -0.644546   -0.404058    1.036619
            48    0       7.673940      1.696250      7.766760     2.377610   -1.063100   -1.658498
            49    0       8.110750      4.965040      1.318590    -2.162567   -1.711496    1.070469
            50    0       7.826460      4.657270      4.598500    -0.219230    0.579823   -0.033612
            51    0       7.892150      4.861360      7.820730    -0.526548   -0.509538   -0.404605
            52    0       7.822950      7.763410      1.511540     0.690380    1.547005    1.644922
            53    0       7.674990      7.797290      4.887350     1.754619    0.234792   -0.754535
            54    0       7.791720      7.997100      7.988540     1.807674    0.022697   -1.166605
 Energy
       -567.502261260000
 PlusStress:  xx          yy          zz          yz          xz          xy
        70.35379    67.98568    71.90977     0.84133    -1.93474    -0.93372
 Feature   EFS_by	VASP
 Feature   mindist	2.277992
END_CFG

BEGIN_CFG
 Size
    54
 Supercell
        10.453200      0.000000      0.000000
         0.000000      9.502870      0.000000
         0.000000      0.000000      9.502870
 AtomData:  id type       cartes_x      cartes_y      cartes_z           fx          fy          fz
             1    0      10.442100      0.005470      0.000140     0.031371    0.002959   -0.012669
             2    0       0.010070      9.502400      3.169180    -0.046492    0.051260   -0.050658
             3    0       0.013190      9.500230      6.313550    -0.025402   -0.005473    0.176259
             4    0       0.004390      3.180310      0.007740    -0.023331   -0.098450    0.014927
             5    0      10.449400      3.167860      3.167040     0.001973    0.048580    0.107400
             6    0       0.002000      3.164560      6.363880    -0.002215   -0.000506   -0.276149
             7    0       0.011580      6.341530      0.000210    -0.032636    0.008374   -0.007398
             8    0      10.452100      6.350760      3.161020    -0.033381   -0.164076    0.053726
             9    0       0.009100      6.327040      6.331570    -0.057131    0.073763    0.015337
            10    0       3.487890      0.000890      0.012320    -0.029365    0.056208   -0.124882
            11    0       3.500030      9.494460      3.159130    -0.049116    0.096095    0.134974
            12    0       3.494380      9.499880      6.339480    -0.021027    0.039984   -0.029934
            13    0       3.496490      3.178810      9.502130    -0.072129   -0.125353   -0.037290
            14    0       3.490120      3.180120      3.154940    -0.022528   -0.181921    0.129501
            15    0       3.481770      3.178470      6.339880    -0.004750   -0.149257   -0.081982
            16    0       3.478870      6.338740      0.004080     0.029704    0.013426   -0.054914
            17    0       3.480440      6.329510      3.173220     0.014954    0.060854   -0.041205
            18    0       3.473420      6.327320      6.330700     0.058927    0.105207    0.071426
            19    0       6.958170      9.495630      9.496120     0.053902    0.030254    0.099731
            20    0       6.956940      9.492940      3.163340     0.055236    0.053723    0.062726
            21    0       6.985260      9.486450      6.347020    -0.048923    0.113064   -0.146428
            22    0       6.965260      3.155340      9.500400     0.045672    0.082088    0.032960
            23    0       6.954570      3.170720      3.165460     0.047323   -0.133852    0.089256
            24    0       6.968790      3.161280      6.354930     0.001862   -0.017443   -0.218605
            25    0       6.973460      6.331020      0.000570    -0.019785   -0.030580   -0.014562
            26    0       6.949190      6.313780      3.165550     0.065557    0.166421    0.004026
            27    0       6.980470      6.328930      6.330290    -0.038554    0.013736    0.036137
            28    0       1.743350      1.575780      1.592570    -0.000331    0.062928   -0.106018
            29    0       1.759310      1.591980      4.734220    -0.077778   -0.063332    0.200186
            30    0       1.732530      1.575060      7.927520     0.063243    0.093536   -0.077563
            31    0       1.742210      4.745470      1.580140    -0.028216    0.061754   -0.007025
            32    0       1.730660      4.761900      4.739210     0.041023   -0.136461    0.115871
            33    0       1.743700      4.746360      7.921340    -0.020513    0.063248   -0.039538
            34    0       1.749200      7.921490      1.602180    -0.024913   -0.055536   -0.139428
            35    0       1.735590      7.905530      4.762950     0.050521    0.170857   -0.074245
            36    0       1.741420      7.929070      7.917190    -0.008536   -0.128811    0.084001
            37    0       5.230550      1.590640      1.573450    -0.016151   -0.077875    0.048839
            38    0       5.206510      1.577360      4.746420     0.076614    0.093868    0.020677
            39    0       5.236470      1.583490      7.912730    -0.036796   -0.060051    0.028757
            40    0       5.207610      4.741340      1.574130     0.061381    0.143243    0.046074
            41    0       5.234200      4.746800      4.748570    -0.048090    0.054873    0.001330
            42    0       5.220710      4.745600      7.909770     0.014398    0.056980    0.054686
            43    0       5.223370      7.921860      1.580450     0.008472   -0.068961    0.041754
            44    0       5.241320      7.934540      4.749000    -0.075071   -0.217102    0.041934
            45    0       5.228720      7.909920      7.929650    -0.025422    0.034651   -0.132173
            46    0       8.702660      1.594410      1.595080     0.015173   -0.121081   -0.120165
            47    0       8.695950      1.576710      4.764570     0.041635    0.029077   -0.125351
            48    0       8.729720      1.582340      7.904630    -0.060151    0.111750    0.223940
            49    0       8.698630      4.754690      1.593060     0.024862   -0.040854   -0.137830
            50    0       8.697630      4.745100      4.746500     0.064143   -0.017546    0.063309
            51    0       8.714160      4.773550      7.913950     0.002972   -0.149391    0.093039
            52    0       8.702580      7.907010      1.589170     0.022189    0.152349   -0.036428
            53    0       8.711200      7.909290      4.745090    -0.000740    0.048699    0.083915
            54    0       8.704200      7.940320      7.928740     0.056364   -0.149897   -0.084262
 Energy
       -579.059552930000
 PlusStress:  xx          yy          zz          yz          xz          xy
      -199.24968   -82.60176   -82.60447     0.02202     0.01500     0.01125
 Feature   EFS_by	VASP
 Feature   mindist	2.801270
END_CFG

BEGIN_CFG
 Size
    53
 Supercell
         9.450120      0.000000      0.000000
         0.000000      9.450120      0.000000
         0.000000      0.000000      9.450120
 AtomData:  id type       cartes_x      cartes_y      cartes_z           fx          fy          fz
             1    0       9.404510      9.404740      3.104700     0.555130    0.547988    0.472167