BEGIN_CFG
 Size
    53
 Supercell
         9.524476     -0.000757     -0.000619
        -0.000757      9.524709     -0.000640
        -0.000619     -0.000640      9.524836
 AtomData:  id type       cartes_x      cartes_y      cartes_z           fx          fy          fz
             1    0       9.521838      9.523059      3.221183     0.026098    0.046636    0.162472
             2    0       9.520949      9.521519      6.306236     0.021731    0.021944   -0.092710
             3    0       9.522078      3.220053      9.522809     0.031424    0.175115    0.038492
             4    0       0.001621      3.173133      3.173888     0.079449   -0.010020   -0.013877
             5    0       0.002325      3.177317      6.352775     0.102049    0.033865    0.145472
             6    0       9.521177      6.306590      9.522608     0.020048   -0.086716    0.023970
             7    0       0.001985      6.352680      3.177648     0.091013    0.155518    0.039357
             8    0       0.001720      6.349740      6.349639     0.092773    0.100547    0.094123
             9    0       3.221089      9.522180      9.522657     0.167948    0.025036    0.028863
            10    0       3.174204      0.000973      3.173098    -0.007036    0.064618   -0.027222
            11    0       3.177988      0.001221      6.353904     0.051024    0.077306    0.170105
            12    0       3.173332      3.173243      0.000662    -0.005749   -0.018943    0.063113
            13    0       3.163580      3.164303      3.164108     0.018983    0.012950    0.015139
            14    0       3.165463      3.166636      6.357293     0.046983    0.041843    0.056696
            15    0       3.177587      6.354159      0.002159     0.047963    0.167435    0.074488
            16    0       3.166075      6.356723      3.166061     0.043464    0.051297    0.037303
            17    0       3.168190      6.353918      6.354079     0.060628    0.034673    0.037323
            18    0       6.306845      9.521937      9.521548    -0.079223    0.010875    0.015146
            19    0       6.353398      0.002122      3.178067     0.167414    0.083629    0.051191
            20    0       6.349508      0.001309      6.349361     0.118623    0.069637    0.104439
            21    0       6.353329      3.177969      0.001193     0.167905    0.054110    0.076530
            22    0       6.356343      3.166515      3.166616     0.070752    0.044497    0.046827
            23    0       6.352379      3.169541      6.353554     0.032271    0.066433    0.034120
            24    0       6.350270      6.349234      0.001583     0.121096    0.095415    0.057668
            25    0       6.353180      6.352751      3.168985     0.029162    0.030692    0.069035
            26    0       6.350316      6.350492      6.350913     0.001602   -0.004594   -0.009367
            27    0       1.552842      1.552759      1.552960    -0.100574   -0.066024   -0.073401
            28    0       1.593979      1.595014      4.761777     0.047756    0.073291   -0.102223
            29    0       1.552880      1.552201      7.972028    -0.100281   -0.087740   -0.026984
            30    0       1.594097      4.761326      1.594912     0.053506   -0.102171    0.074175
            31    0       1.591306      4.762456      4.762568     0.019243   -0.034055   -0.028446
            32    0       1.590392      4.761343      7.928483    -0.039113   -0.109286   -0.122636
            33    0       1.553381      7.972159      1.552713    -0.098096   -0.028139   -0.106656
            34    0       1.590387      7.927601      4.761431    -0.048903   -0.127501   -0.098827
            35    0       1.551582      7.971440      7.971793    -0.172524   -0.003926   -0.002917
            36    0       4.761113      1.594393      1.594547    -0.113960    0.043035    0.062303
            37    0       4.762376      1.592496      4.762346    -0.023064    0.030491   -0.025375
            38    0       4.760644      1.590589      7.928372    -0.119338   -0.048693   -0.104205
            39    0       4.762270      4.762268      1.592129    -0.031786   -0.030077    0.036238
            40    0       4.761764      4.762079      4.761649     0.014667    0.004287   -0.000096
            41    0       4.761889      4.762052      7.927331    -0.020645   -0.029629   -0.174681
            42    0       4.760754      7.928758      1.590518    -0.135151   -0.117495   -0.050201
            43    0       4.762233      7.926576      4.761814    -0.028105   -0.175097   -0.021388
            44    0       4.761053      7.932064      7.932334    -0.120427   -0.016445   -0.023116
            45    0       7.972757      1.552616      1.552840    -0.030295   -0.092317   -0.090996
            46    0       7.928545      1.589992      4.760778    -0.102056   -0.053746   -0.111143
            47    0       7.970451      1.551010      7.970892    -0.017636   -0.182492    0.013462
            48    0       7.928802      4.760289      1.589803    -0.114209   -0.107552   -0.058656
            49    0       7.926342      4.761571      4.761706    -0.180172   -0.023174   -0.027958
            50    0       7.931076      4.761008      7.933036    -0.037743   -0.106375   -0.005617
            51    0       7.971170      7.971462      1.551014    -0.020784   -0.000381   -0.182691
            52    0       7.931281      7.932150      4.761219    -0.034919   -0.004827   -0.101340
            53    0       7.970012      7.970851      7.971203     0.036218    0.052238    0.054677
 Energy
       -575.966797446783
 PlusStress:  xx          yy          zz          yz          xz          xy
         2.98310     2.91554     2.90264    -0.06307    -0.07889    -0.08079
 Feature   EFS_by	VASP
 Feature   MV_grade	3.073088
 Feature   mindist	2.546341
END_CFG

BEGIN_CFG
 Size
    53
 Supercell
         9.525109     -0.000320     -0.000229
        -0.000320      9.525313     -0.000271
        -0.000229     -0.000271      9.525434
 AtomData:  id type       cartes_x      cartes_y      cartes_z           fx          fy          fz
             1    0       0.000616      0.000258      3.221407     0.030958    0.010144   -0.030373
             2    0       0.000217      0.000026      6.307297     0.038197    0.030439   -0.008888
             3    0       0.000543      3.220929      0.000093     0.027796   -0.024638    0.015227
             4    0       9.524866      3.176176      3.176466    -0.035804    0.045043    0.037623
             5    0       9.524693      3.175965      6.349378    -0.052931   -0.020680   -0.063374
             6    0       0.000296      6.307410      0.000410     0.038155   -0.014454    0.024837
             7    0       9.524693      6.349086      3.175997    -0.047820   -0.065723   -0.026417
             8    0       9.524584      6.349283      6.349660    -0.047944   -0.021684   -0.015514
             9    0       3.221560      0.000401      0.000393    -0.029266    0.028118    0.022451
            10    0       3.176338      9.524966      3.176659     0.032149   -0.027208    0.052045
            11    0       3.176070      9.524781      6.349079    -0.029526   -0.036764   -0.084982
            12    0       3.176134      3.176339      9.524971     0.039830    0.045105   -0.024200
            13    0       3.167060      3.167412      3.167432     0.039889    0.034035    0.036890
            14    0       3.167326      3.167808      6.357516     0.012991    0.004302   -0.007509
            15    0       3.176236      6.349486     -0.000181    -0.026180   -0.086314   -0.043788
            16    0       3.167525      6.357260      3.167577     0.007332   -0.003161    0.009259
            17    0       3.168007      6.357296      6.357500    -0.019741    0.033197    0.034102
            18    0       6.307420      0.000517      0.000304    -0.018694    0.033659    0.037837
            19    0       6.349441     -0.000114      3.176257    -0.077087   -0.044577   -0.032983
            20    0       6.349371     -0.000328      6.349561    -0.023567   -0.036421   -0.017639
            21    0       6.349020      3.175789      9.525101    -0.078945   -0.034834   -0.033570
            22    0       6.357309      3.167604      3.167554     0.000718    0.001934    0.000058
            23    0       6.356821      3.168361      6.357140     0.047605   -0.033842    0.036645
            24    0       6.349625      6.349638     -0.000074    -0.030652   -0.014566   -0.035359
            25    0       6.357206      6.356972      3.167954     0.042462    0.044589   -0.032504
            26    0       6.356239      6.356240      6.356506     0.070174    0.068190    0.067287
            27    0       1.551150      1.550989      1.551117    -0.023023   -0.027094   -0.027371
            28    0       1.593725      1.593273      4.763384    -0.011936   -0.035035    0.025133
            29    0       1.551447      1.551257      7.972968    -0.020649   -0.014581    0.010821
            30    0       1.593409      4.763036      1.593415    -0.018909    0.026194   -0.031409
            31    0       1.589991      4.761550      4.761594    -0.033152   -0.015942   -0.017197
            32    0       1.594375      4.763174      7.931950     0.050366    0.026934    0.047539
            33    0       1.551520      7.973087      1.551842    -0.026602    0.010663   -0.011400
            34    0       1.594589      7.931533      4.762975     0.054558    0.053214    0.022178
            35    0       1.551670      7.972269      7.972476     0.005505    0.001393   -0.000442
            36    0       4.763196      1.593540      1.593367     0.031921   -0.019590   -0.025351
            37    0       4.761061      1.590312      4.761616    -0.022850   -0.044567   -0.014308
            38    0       4.762808      1.594637      7.931533     0.031652    0.053187    0.041422
            39    0       4.761193      4.761317      1.589997    -0.019092   -0.017440   -0.044723
            40    0       4.759776      4.760358      4.760283    -0.042363   -0.036435   -0.031327
            41    0       4.761049      4.761701      7.934871    -0.020318   -0.011876    0.106422
            42    0       4.763244      7.931557      1.594636     0.037422    0.036993    0.054861
            43    0       4.761332      7.934291      4.761394    -0.020260    0.108657   -0.013392
            44    0       4.762779      7.929746      7.930058     0.021951   -0.045259   -0.043398
            45    0       7.972852      1.551529      1.551558    -0.001089   -0.015793   -0.018471
            46    0       7.931268      1.594802      4.763130     0.034130    0.063662    0.034380
            47    0       7.971783      1.551953      7.971926     0.007923    0.019448    0.001597
            48    0       7.931586      4.762477      1.594664     0.035994    0.031017    0.065161
            49    0       7.934341      4.761231      4.761522     0.111698   -0.012875   -0.009519
            50    0       7.929792      4.762472      7.929912    -0.029749    0.017295   -0.056729
            51    0       7.972033      7.972377      1.552064     0.001591    0.000971    0.021566
            52    0       7.929459      7.929581      4.762542    -0.037584   -0.050088    0.015595
            53    0       7.971313      7.971535      7.971703    -0.007235   -0.016939   -0.018801
 Energy
       -576.010314582895
 PlusStress:  xx          yy          zz          yz          xz          xy
        -0.01851    -0.03360    -0.03700     0.09355     0.09716     0.11185
 Feature   EFS_by	VASP
 Feature   MV_grade	3.096278
 Feature   mindist	2.546341
END_CFG

BEGIN_CFG
 Size
    53
 Supercell
         9.524496     -0.000119     -0.000062
        -0.000119      9.524673     -0.000104
        -0.000061     -0.000104      9.524778
 AtomData:  id type       cartes_x      cartes_y      cartes_z           fx          fy          fz
             1    0       9.524315      9.524434      3.220110    -0.011054   -0.006142   -0.007309
             2    0       9.524204      9.524333      6.305694    -0.008968   -0.006664   -0.015727
             3    0       9.524371      3.219631      9.524418    -0.010169   -0.006684   -0.006520
             4    0       0.000218      3.175644      3.175875     0.005434   -0.011858   -0.011065
             5    0       0.000081      3.176459      6.349244     0.006571    0.002358    0.003706
             6    0       9.524341      6.305839     -0.000026    -0.009995   -0.015793   -0.007924
             7    0       0.000006      6.349084      3.176466     0.005171    0.004322    0.003532
             8    0      -0.000092      6.348428      6.348490     0.004654   -0.008472   -0.011323
             9    0       3.220029      9.524408      9.524574    -0.010423   -0.009464   -0.008167
            10    0       3.175941      0.000082      3.175856    -0.010206    0.004602   -0.014985
            11    0       3.176420      9.524535      6.349121     0.002348    0.004469    0.007834
            12    0       3.175637      3.175706      0.000010    -0.010636   -0.012834    0.005288
            13    0       3.166898      3.167011      3.167011    -0.004363   -0.006693   -0.006721
            14    0       3.167290      3.167624      6.357141    -0.001789   -0.003032   -0.000538
            15    0       3.176391      6.349296      0.000207     0.001981    0.006670    0.004705
            16    0       3.167440      6.356933      3.167425    -0.002430   -0.000523   -0.002647
            17    0       3.167697      6.356540      6.356635    -0.004324   -0.008106   -0.009080
            18    0       6.305853     -0.000061      9.524630    -0.016607   -0.010044   -0.009443
            19    0       6.349046      0.000170      3.176578     0.003582    0.003501    0.004990
            20    0       6.348199     -0.000015      6.348289    -0.008560    0.002633   -0.009416
            21    0       6.349014      3.176460     -0.000049     0.005396    0.005569    0.003214
            22    0       6.356738      3.167470      3.167476    -0.003664   -0.002303   -0.001125
            23    0       6.356129      3.167993      6.356493    -0.008303   -0.004046   -0.006595
            24    0       6.348452      6.348291      0.000171    -0.008650   -0.011023    0.001782
            25    0       6.356432      6.356264      3.167701    -0.009356   -0.008207   -0.002274
            26    0       6.355952      6.355939      6.356167    -0.005956   -0.005675   -0.005771
            27    0       1.551904      1.551671      1.551810     0.008583    0.008384    0.008379
            28    0       1.593445      1.593352      4.762889     0.000289    0.005749   -0.003579
            29    0       1.552330      1.552099      7.972793     0.009390    0.008632    0.004825
            30    0       1.593335      4.762627      1.593388     0.003005   -0.002635    0.004394
            31    0       1.589670      4.762268      4.762296    -0.001387    0.012789    0.012784
            32    0       1.593658      4.762810      7.931002    -0.010690   -0.003938   -0.008822
            33    0       1.552405      7.972848      1.552461     0.009350    0.003915    0.005687
            34    0       1.593760      7.930686      4.762763    -0.012565   -0.008100   -0.001792
            35    0       1.552955      7.972261      7.972396     0.010158    0.005444    0.004884
            36    0       4.762558      1.593562      1.593509    -0.005694    0.003656    0.005879
            37    0       4.761946      1.589943      4.762206     0.015385   -0.001629    0.011468
            38    0       4.762565      1.593872      7.930761    -0.002749   -0.011803   -0.006192
            39    0       4.762008      4.762035      1.589754     0.014091    0.012813    0.000232
            40    0       4.760989      4.761346      4.761311     0.020429    0.017032    0.017465
            41    0       4.761903      4.762152      7.934860     0.013196    0.007914   -0.001219
            42    0       4.762799      7.930858      1.593928    -0.006034   -0.005704   -0.011147
            43    0       4.762063      7.934497      4.761994     0.011388    0.000847    0.010119
            44    0       4.762748      7.930410      7.930604    -0.001526    0.014099    0.012914
            45    0       7.972779      1.552341      1.552367     0.006141    0.008177    0.008578
            46    0       7.930591      1.593857      4.762828    -0.004838   -0.014566   -0.003477
            47    0       7.971932      1.553100      7.971985     0.006625    0.007773    0.006585
            48    0       7.930764      4.762456      1.593790    -0.006989   -0.000235   -0.013546
            49    0       7.934513      4.762005      4.762132     0.000272    0.011625    0.009880
            50    0       7.930274      4.762596      7.930597     0.011127    0.000615    0.015313
            51    0       7.972111      7.972267      1.553141     0.005644    0.003853    0.007193
            52    0       7.930189      7.930287      4.762647     0.014260    0.014990    0.000887
            53    0       7.971244      7.971435      7.971570     0.003454    0.003740    0.003885
 Energy
       -576.016430795125
 PlusStress:  xx          yy          zz          yz          xz          xy
        -0.19345    -0.20957    -0.21652     0.03945     0.03694     0.04716
 Feature   EFS_by	VASP
 Feature   MV_grade	3.071232
 Feature   mindist	2.546341
END_CFG

BEGIN_CFG
 Size
    53
 Supercell
         9.524429     -0.000045     -0.000012
        -0.000045      9.524558     -0.000042
        -0.000011     -0.000041      9.524642
 AtomData:  id type       cartes_x      cartes_y      cartes_z           fx          fy          fz
             1    0       9.524264      9.524394      3.219812    -0.000038    0.000228   -0.003088
             2    0       9.524185      9.524300      6.305611    -0.000241   -0.000105    0.000911
             3    0       9.524303      3.219527      9.524410    -0.000129   -0.001469    0.001075
             4    0       0.000184      3.175543      3.175682    -0.001291   -0.000201   -0.001117
             5    0       0.000132      3.175908      6.349052    -0.000462   -0.006356   -0.001400
             6    0       9.524238      6.305616      9.524554    -0.000296    0.000158   -0.001233
             7    0       0.000097      6.348948      3.175887     0.000008   -0.001006   -0.006656
             8    0       0.000015      6.348769      6.348830     0.000077    0.005126    0.005519
             9    0       3.219768      9.524348      9.524470    -0.002763    0.000291    0.000049
            10    0       3.175652      0.000075      3.175692    -0.002459   -0.000991   -0.000423
            11    0       3.175935     -0.000027      6.349050    -0.006974    0.000205   -0.001444
            12    0       3.175505      3.175573      0.000037    -0.000865   -0.000456   -0.000620
            13    0       3.167153      3.167315      3.167335     0.002462    0.003515    0.003874
            14    0       3.167499      3.167704      6.356922     0.001745    0.000674   -0.001911
            15    0       3.175859      6.349083      0.000171    -0.006369   -0.001970   -0.001282
            16    0       3.167576      6.356782      3.167596     0.001004   -0.001449    0.001767
            17    0       3.167905      6.356497      6.356576     0.002106    0.000076    0.000221
            18    0       6.305579      9.524480      9.524451    -0.000341   -0.000788    0.000128
            19    0       6.348936      0.000172      3.175963    -0.000853   -0.000825   -0.007075
            20    0       6.348599      0.000044      6.348706     0.005480   -0.000412    0.006257
            21    0       6.348902      3.175861      0.000046    -0.001150   -0.007205    0.000281
            22    0       6.356704      3.167645      3.167670    -0.000212    0.001635    0.001979
            23    0       6.356245      3.168077      6.356453     0.001404    0.000969    0.000187
            24    0       6.348718      6.348705      0.000154     0.003901    0.006053   -0.000961
            25    0       6.356393      6.356302      3.167921    -0.000206    0.000811    0.002513
            26    0       6.356017      6.356050      6.356184     0.000075    0.000867    0.000189
            27    0       1.552052      1.551936      1.552036     0.001061    0.002403    0.002054
            28    0       1.593822      1.593749      4.762694     0.003986    0.003811   -0.001157
            29    0       1.552340      1.552181      7.972446    -0.000941   -0.000203   -0.003307
            30    0       1.593724      4.762522      1.593772     0.003797   -0.000438    0.003851
            31    0       1.590272      4.762184      4.762198     0.006739   -0.001883   -0.001884
            32    0       1.593959      4.762654      7.930903     0.003398   -0.001375    0.000519
            33    0       1.552348      7.972471      1.552411    -0.001806   -0.003772   -0.001237
            34    0       1.594023      7.930710      4.762595     0.003064    0.001514   -0.001576
            35    0       1.552544      7.972148      7.972257    -0.006389   -0.001452   -0.001421
            36    0       4.762514      1.593827      1.593782     0.000300    0.002417    0.002448
            37    0       4.762000      1.590404      4.762215    -0.000808    0.005305   -0.000560
            38    0       4.762493      1.594028      7.930779    -0.000758    0.001866    0.001569
            39    0       4.762035      4.762088      1.590285    -0.001063   -0.000439    0.006032
            40    0       4.761687      4.761886      4.761857     0.005665    0.004417    0.004637
            41    0       4.762011      4.762202      7.934351    -0.000468   -0.000456   -0.005461
            42    0       4.762636      7.930800      1.594055    -0.001609    0.000452    0.001612
            43    0       4.762123      7.934086      4.762109    -0.000890   -0.004976    0.000243
            44    0       4.762636      7.930489      7.930657    -0.001780   -0.000065    0.000086
            45    0       7.972388      1.552334      1.552351    -0.004462   -0.001198   -0.001053
            46    0       7.930627      1.594077      4.762646     0.001084    0.002733   -0.001551
            47    0       7.971935      1.552631      7.972028    -0.000664   -0.006946    0.000440
            48    0       7.930754      4.762395      1.594029     0.000731   -0.000890    0.003067
            49    0       7.934092      4.762058      4.762153    -0.005370   -0.000886   -0.000740
            50    0       7.930441      4.762552      7.930636     0.000803   -0.001113   -0.000181
            51    0       7.972034      7.972201      1.552665    -0.001545   -0.000838   -0.006725
            52    0       7.930361      7.930459      4.762578     0.000482    0.000841   -0.001074
            53    0       7.971658      7.971813      7.971895     0.003832    0.003796    0.003626
 Energy
       -576.016796174807
 PlusStress:  xx          yy          zz          yz          xz          xy
        -0.00526    -0.01844    -0.02407     0.01477     0.01118     0.01738
 Feature   EFS_by	VASP
 Feature   MV_grade	3.067941
 Feature   mindist	2.546341
END_CFG

BEGIN_CFG
 Size
    53
 Supercell
         9.524489     -0.000005      0.000009
        -0.000004      9.524569     -0.000006
         0.000009     -0.000006      9.524629
 AtomData:  id type       cartes_x      cartes_y      cartes_z           fx          fy          fz
             1    0       9.524406      9.524509      3.219668     0.000709    0.000606   -0.001332
             2    0       9.524384      9.524467      6.305401     0.001151    0.001112   -0.001553
             3    0       9.524436      3.219531      9.524524     0.000724   -0.000586    0.000862
             4    0       0.000111      3.175671      3.175744    -0.000938    0.001609    0.001237
             5    0       0.000106      3.175857      6.348953    -0.000801    0.000527   -0.001035
             6    0       9.524394      6.305397      9.524597     0.000872   -0.001818    0.000630
             7    0       0.000074      6.348899      3.175847    -0.000853   -0.000833    0.000712
             8    0       0.000068      6.348805      6.348830    -0.000187   -0.000842   -0.000984
             9    0       3.219614      9.524465      9.524553    -0.001654    0.000793    0.000756
            10    0       3.175708      0.000056      3.175749     0.001253   -0.000481    0.001260
            11    0       3.175856      0.000007      6.348954     0.000300   -0.000347   -0.001136
            12    0       3.175641      3.175683      0.000044     0.001616    0.001551   -0.000286
            13    0       3.167546      3.167610      3.167630     0.003012    0.002087    0.002133
            14    0       3.167708      3.167796      6.356880     0.001194    0.000440   -0.000184
            15    0       3.175810      6.348949      0.000105     0.000353   -0.001536   -0.000913
            16    0       3.167729      6.356797      3.167742     0.000802    0.000061    0.000843
            17    0       3.167902      6.356691      6.356738    -0.000895    0.001636    0.001546
            18    0       6.305366      9.524535      9.524549    -0.001795    0.000353    0.000887
            19    0       6.348858      0.000118      3.175890    -0.001367   -0.000949    0.000491
            20    0       6.348713      0.000069      6.348800    -0.000402   -0.000333   -0.000243
            21    0       6.348854      3.175834      0.000054    -0.001160    0.000741   -0.000455
            22    0       6.356738      3.167767      3.167788    -0.000207    0.000480    0.000506
            23    0       6.356567      3.167991      6.356699     0.002351   -0.001386    0.002295
            24    0       6.348774      6.348775      0.000119    -0.000746   -0.000621   -0.000600
            25    0       6.356629      6.356606      3.167921     0.001865    0.002507   -0.000765
            26    0       6.356446      6.356464      6.356535     0.003460    0.003375    0.003206
            27    0       1.552134      1.552099      1.552141     0.000404    0.000886    0.000503
            28    0       1.593948      1.593904      4.762474    -0.000109   -0.000013   -0.001626
            29    0       1.552294      1.552230      7.972336    -0.000638    0.000072   -0.000634
            30    0       1.593903      4.762380      1.593910     0.000269   -0.001217   -0.000064
            31    0       1.590275      4.762247      4.762257    -0.001720    0.000217    0.000315
            32    0       1.594029      4.762437      7.930791    -0.000170   -0.001872   -0.000746
            33    0       1.552281      7.972334      1.552322    -0.000771   -0.000980   -0.000806
            34    0       1.594043      7.930689      4.762415    -0.000543   -0.000325   -0.001431
            35    0       1.552356      7.972189      7.972256    -0.001050   -0.000043   -0.000206
            36    0       4.762358      1.593943      1.593944    -0.001568    0.000022    0.000456
            37    0       4.762142      1.590317      4.762260     0.000465   -0.002261   -0.000007
            38    0       4.762353      1.594042      7.930734    -0.001420   -0.000335   -0.000410
            39    0       4.762155      4.762177      1.590274     0.000301    0.000149   -0.001644
            40    0       4.762009      4.762096      4.762095     0.000450   -0.000031    0.000385
            41    0       4.762169      4.762247      7.934516     0.000438   -0.000301    0.002714
            42    0       4.762406      7.930724      1.594062    -0.002065   -0.000742   -0.000249
            43    0       4.762211      7.934376      4.762219    -0.000107    0.003433    0.000291
            44    0       4.762405      7.930561      7.930652    -0.002371   -0.000334   -0.000760
            45    0       7.972263      1.552304      1.552313    -0.001146   -0.000485   -0.000414
            46    0       7.930648      1.594074      4.762446    -0.000337   -0.000599   -0.001468
            47    0       7.972077      1.552398      7.972161     0.000458   -0.001310    0.000676
            48    0       7.930694      4.762320      1.594042    -0.000980   -0.000817   -0.000344
            49    0       7.934388      4.762202      4.762247     0.003267    0.000562    0.000397
            50    0       7.930528      4.762377      7.930643    -0.000517   -0.001957   -0.000657
            51    0       7.972104      7.972214      1.552412    -0.000105   -0.000401   -0.001340
            52    0       7.930491      7.930550      4.762389    -0.000219   -0.000416   -0.001846
            53    0       7.971987      7.972096      7.972148     0.001123    0.000953    0.001037
 Energy
       -576.016850023171
 PlusStress:  xx          yy          zz          yz          xz          xy
         0.01860     0.00908     0.00403     0.00545     0.00249     0.00613
 Feature   EFS_by	VASP
 Feature   MV_grade	3.068745
 Feature   mindist	2.546341
END_CFG

BEGIN_CFG
 Size
    53
 Supercell
         9.524548      0.000016      0.000015
         0.000016      9.524584      0.000013
         0.000015      0.000013      9.524618
 AtomData:  id type       cartes_x      cartes_y      cartes_z           fx          fy          fz
             1    0       9.524558      9.524603      3.219444     0.000547    0.000320   -0.001134
             2    0       9.524567      9.524601      6.305192     0.000676    0.000538   -0.001109
             3    0       9.524566      3.219435      9.524623     0.000450   -0.000715    0.000521
             4    0       0.000056      3.175763      3.175768    -0.000291    0.000550    0.000283