BEGIN_CFG
 Size
    54
 Supercell
         9.450120      0.000000      0.000000
         0.000000      9.450120      0.000000
         0.000000      0.000000      9.450120
 AtomData:  id type       cartes_x      cartes_y      cartes_z           fx          fy          fz
             1    0       0.229970      8.692960      7.753470    -2.256110    2.799625   -1.688842
             2    0       1.064840      2.904270      1.108740    -1.835445   -0.482266   -1.084979
             3    0       3.947580      7.666310      1.161140     0.592955   -0.763867   -0.577900
             4    0       4.089120      6.282640      8.175630    -1.005025    0.277641    2.899553
             5    0       8.172560      4.112150      8.497340     1.631955   -0.042245   -2.761622
             6    0       7.347990      2.407830      4.720300    -0.748622   -0.477379    2.329176
             7    0       1.373620      0.411180      1.256200    -1.195212    0.307291    1.731987
             8    0       6.210010      4.427610      3.208880     0.985139   -1.143075    2.015116
             9    0       6.062100      7.858350      6.780430     3.343577   -3.329430    2.469508
            10    0       7.983050      8.235170      2.641860     1.450895    8.859431   -0.577760
            11    0       4.934200      1.672990      4.635490     1.756094   -0.267702    0.587139
            12    0       3.515880      2.491490      1.227400     0.267627    0.730289   -0.015744
            13    0       5.946070      4.837070      6.088190    -1.343559   -0.772939    0.796408
            14    0       2.652480      1.881270      3.580670    -4.393648   -1.786906    1.248708
            15    0       1.399700      7.444440      1.370220    -3.170195    1.649181   -4.659660
            16    0       1.997280      7.177450      3.403670     2.911777    0.315103    3.773517
            17    0       3.747120      7.249660      5.910340    -4.576901    2.362252    3.255589
            18    0       0.727200      3.021520      5.537010     0.560938   -1.180477    0.889194
            19    0       9.247520      1.081310      3.606900     1.316060   -1.054111   -0.510414
            20    0       0.152430      8.012100      4.840780     1.012848    3.244582    1.532036
            21    0       4.326850      4.904430      1.770370     2.873489    1.127443   -1.715209
            22    0       8.249270      0.835910      0.814440     0.459944    1.780584   -0.945147
            23    0       2.236870      5.310410      1.001770    -1.239015   -1.894197   -2.216447
            24    0       3.544860      2.079090      6.531580     0.231360    2.245696   -0.004836
            25    0       6.638460      6.598770      1.980990    -9.473557    0.573144    1.102200
            26    0       3.644480      3.874770      3.969320     1.169614    1.656651    2.088269
            27    0       4.794120      3.873270      8.648860    -1.600109   -0.379546   -0.736722
            28    0       1.843150      3.636530      8.135550    -0.756983    0.758281    0.942554
            29    0       8.250300      4.833790      5.189510     0.724074   -3.938059    0.724623
            30    0       5.516010      1.428710      0.042250    -2.804420   -2.472322    0.097657
            31    0       0.676450      6.389950      8.326040     3.841674   -4.039976    1.975465
            32    0       1.650200      0.561660      6.143410     0.509279   -0.797788   -3.294462
            33    0       8.777290      3.544180      3.041620    -4.999996   -3.260657   -2.757751
            34    0       2.294610      1.030190      8.605120     0.585570    5.581369    0.691067
            35    0       7.228770      6.938190      4.556810    -3.314116   -1.805238    3.414859
            36    0       1.152200      5.736430      5.576980     1.907176    0.031422    0.883526
            37    0       4.623060      9.440780      7.440810    -0.025331    2.943382   -1.169315
            38    0       8.358690      7.935260      0.077170     0.467729   -0.739803    0.210984
            39    0       5.506890      8.462830      4.457410    -0.731101    5.518080   -2.888385
            40    0       2.575530      8.384280      8.172110     0.715620   -5.337494    1.189650
            41    0       8.303770      5.483480      1.138150     5.725617   -3.996877   -4.342782
            42    0       6.748510      3.230560      0.839650     0.998099    2.676387    1.691403
            43    0       6.295200      1.446970      2.446800     0.547754   -2.127857    2.239764
            44    0       3.579880      9.431780      2.763870     1.240065   -1.656612   -0.649665
            45    0       6.775310      2.287240      7.671370    -1.507686   -0.090490   -3.486089
            46    0       7.538190      0.157570      5.701280     1.233836    0.255389    0.447951
            47    0       4.330500      6.444650      4.068560     1.781646   -4.125168   -5.099497
            48    0       9.073650      1.736050      7.534440     1.691042    0.012916    0.309787
            49    0       8.492770      6.461900      6.808370    -3.192395    2.069424    1.398851
            50    0       6.354930      5.878990      8.989090    -0.183900    0.356162   -2.239780
            51    0       3.297810      4.701760      6.506220    -0.273335   -0.602226   -1.671037
            52    0       9.036980      6.236300      3.124730     4.667220   -1.893195    1.721718
            53    0       6.095710      8.410100      0.068960    -2.033422    0.717606    0.202125
            54    0       1.266390      4.303730      3.329810     5.459412    1.608567    0.233661
 Energy
       -530.274634690000
 PlusStress:  xx          yy          zz          yz          xz          xy
       169.74052   185.48556   157.66281     9.71482    -6.08902    -9.09224
 Feature   EFS_by	VASP
 Feature   mindist	2.092971
END_CFG

BEGIN_CFG
 Size
    34
 Supercell
         4.481240      0.000000      0.000000
        -2.240620      9.237860      0.001337
         0.000000      0.000000     26.133200
 AtomData:  id type       cartes_x      cartes_y      cartes_z           fx          fy          fz
             1    0      -0.000580      5.422650      7.295860     0.004337   -0.052514    0.196078
             2    0       2.240790      7.090040      8.625130    -0.004890    0.011966    0.082110
             3    0       2.240360      9.202710     19.132800     0.000874   -0.068078   -0.283968
             4    0       2.241340      1.667580      7.958310    -0.002405    0.021965    0.093591
             5    0       0.000110      3.235190      9.427300     0.002303   -0.019781   -0.124970
             6    0       2.240270      4.883410     10.946100    -0.002501    0.021607    0.019992
             7    0       2.240350      8.165900     14.012000     0.002610    0.001669    0.000184
             8    0      -0.000310      8.671120     10.158300     0.001883   -0.016820   -0.082834
             9    0      -0.000170      1.065640     11.704700     0.001974   -0.004703   -0.003743
            10    0       2.240130      2.714200     13.261500     0.005444   -0.000019   -0.018370
            11    0       0.000290      4.361300     14.807100     0.000417   -0.007518    0.015352
            12    0       2.241150      6.012240     16.350100    -0.006977    0.008683    0.094476
            13    0      -0.000690      6.514380     12.498600     0.003741   -0.000778    0.000724
            14    0       2.240260      0.556600     15.573100     0.000384   -0.002502    0.024670
            15    0       0.000200      2.206600     17.172800    -0.002252   -0.008104   -0.024924
            16    0       2.240730      3.796950     18.480900    -0.001314    0.012724   -0.184229
            17    0      -0.000720      7.565100     17.877500     0.005843   -0.007253   -0.014359
            18    0      -0.000460      5.942700      9.784880     0.005713   -0.009285   -0.095270
            19    0       2.240330      7.593690     11.327800    -0.000530    0.006779   -0.015809
            20    0      -0.000110      0.510450      8.960610     0.001155    0.007883    0.025895
            21    0       2.240970      2.160340     10.560500    -0.000063    0.002904   -0.025571
            22    0       0.000130      3.788960     12.122900    -0.001000   -0.001630   -0.000606
            23    0       2.241320      5.440530     13.636100    -0.004463    0.000825    0.001378
            24    0       2.240460      8.719670     16.707500    -0.001455    0.019314    0.126527
            25    0       2.241130      0.002840     12.872000    -0.005425   -0.000446    0.019685
            26    0       0.000370      1.651330     14.428900    -0.004200    0.005586    0.003240
            27    0       2.240860      3.283810     15.976700    -0.000466    0.016841    0.081305
            28    0      -0.000230      4.864860     17.509800     0.005352   -0.011948   -0.081897
            29    0       2.241320      6.532320     18.839200    -0.005287    0.052705   -0.197040
            30    0       0.000220      7.071450     15.188800     0.003504   -0.022017   -0.020259
            31    0       2.240080      1.049390     18.175200     0.001218   -0.021762   -0.093634
            32    0       0.000180      2.752110      7.002070    -0.000792    0.068149    0.283881
            33    0       2.241310      4.389660      8.257460    -0.005391    0.008235    0.014271
            34    0      -0.000270      8.157940      7.654020     0.002659   -0.012676    0.184123
 Energy
       -355.609033200000
 PlusStress:  xx          yy          zz          yz          xz          xy
       -19.08044   -20.37838    -8.17656    -0.37229    -0.01637    -0.02938
 Feature   EFS_by	VASP
 Feature   mindist	2.472874
END_CFG

BEGIN_CFG
 Size
    24
 Supercell
         4.481910      0.000000      0.000000
         0.000000      5.488020     -0.004060
         0.000000      0.000000     31.033600
 AtomData:  id type       cartes_x      cartes_y      cartes_z           fx          fy          fz
             1    0       0.000000      0.266520      0.329720     0.000004    0.049481    0.326394
             2    0       2.240960      1.793160      1.308850    -0.000014   -0.127824    0.100662
             3    0       0.000000      3.651590      2.495600     0.000037    0.021301    0.035084
             4    0       2.240960      5.456210      3.851700    -0.000050    0.004301   -0.026356
             5    0       0.000000      1.824750      5.203890     0.000052   -0.008456    0.015799
             6    0       2.240960      3.673420      6.458570    -0.000058   -0.001354    0.015413
             7    0       0.000000      0.949000      2.624650     0.000052   -0.062937   -0.193964
             8    0       2.240960      2.724160      3.864490    -0.000053    0.005537   -0.023240
             9    0       0.000000      4.570650      5.150310     0.000056    0.002168    0.017055
            10    0       2.240960      0.913870      6.484040    -0.000054    0.006511   -0.000333
            11    0       0.000000      2.753180      7.738990     0.000057   -0.012808   -0.016478
            12    0       2.240960      4.613660      1.345030    -0.000024    0.106354    0.105311
            13    0       0.000000      5.478850      7.771730     0.000058    0.012792    0.016515
            14    0       2.240960      1.830140      9.030730    -0.000059   -0.006567    0.000475
            15    0       0.000000      3.661380     10.360400     0.000054   -0.002138   -0.017023
            16    0       2.240960      0.019850     11.650300    -0.000053   -0.005593    0.022952
            17    0       0.000000      1.795010     12.890100     0.000053    0.063094    0.194734
            18    0       2.240960      3.618370     14.165700    -0.000026   -0.106393   -0.105411
            19    0       0.000000      0.919260     10.310900     0.000055    0.008436   -0.016011
            20    0       2.240960      2.775820     11.659000    -0.000053   -0.004278    0.026521
            21    0       0.000000      4.580440     13.015100     0.000036   -0.021383   -0.034951
            22    0       2.240960      0.950850     14.205900    -0.000015    0.127888   -0.100576
            23    0       0.000000      2.477500     15.185100     0.000002   -0.049535   -0.327301
            24    0       2.240960      4.558610      9.052140    -0.000058    0.001403   -0.015270
 Energy
       -251.616002530000
 PlusStress:  xx          yy          zz          yz          xz          xy
       -16.35461   -14.03209    -6.05827    -0.06458    -0.00001     0.00001
 Feature   EFS_by	VASP
 Feature   mindist	2.394260
END_CFG

BEGIN_CFG
 Size
    54
 Supercell
        10.453200      0.000000      0.000000
         0.000000      9.502870      0.000000
         0.000000      0.000000      9.502870
 AtomData:  id type       cartes_x      cartes_y      cartes_z           fx          fy          fz
             1    0      10.442100      0.005470      0.000140     0.031371    0.002959   -0.012669
             2    0       0.010070      9.502400      3.169180    -0.046492    0.051260   -0.050658
             3    0       0.013190      9.500230      6.313550    -0.025402   -0.005473    0.176259
             4    0       0.004390      3.180310      0.007740    -0.023331   -0.098450    0.014927
             5    0      10.449400      3.167860      3.167040     0.001973    0.048580    0.107400
             6    0       0.002000      3.164560      6.363880    -0.002215   -0.000506   -0.276149
             7    0       0.011580      6.341530      0.000210    -0.032636    0.008374   -0.007398
             8    0      10.452100      6.350760      3.161020    -0.033381   -0.164076    0.053726
             9    0       0.009100      6.327040      6.331570    -0.057131    0.073763    0.015337
            10    0       3.487890      0.000890      0.012320    -0.029365    0.056208   -0.124882
            11    0       3.500030      9.494460      3.159130    -0.049116    0.096095    0.134974
            12    0       3.494380      9.499880      6.339480    -0.021027    0.039984   -0.029934
            13    0       3.496490      3.178810      9.502130    -0.072129   -0.125353   -0.037290
            14    0       3.490120      3.180120      3.154940    -0.022528   -0.181921    0.129501
            15    0       3.481770      3.178470      6.339880    -0.004750   -0.149257   -0.081982
            16    0       3.478870      6.338740      0.004080     0.029704    0.013426   -0.054914
            17    0       3.480440      6.329510      3.173220     0.014954    0.060854   -0.041205
            18    0       3.473420      6.327320      6.330700     0.058927    0.105207    0.071426
            19    0       6.958170      9.495630      9.496120     0.053902    0.030254    0.099731
            20    0       6.956940      9.492940      3.163340     0.055236    0.053723    0.062726
            21    0       6.985260      9.486450      6.347020    -0.048923    0.113064   -0.146428
            22    0       6.965260      3.155340      9.500400     0.045672    0.082088    0.032960
            23    0       6.954570      3.170720      3.165460     0.047323   -0.133852    0.089256
            24    0       6.968790      3.161280      6.354930     0.001862   -0.017443   -0.218605
            25    0       6.973460      6.331020      0.000570    -0.019785   -0.030580   -0.014562
            26    0       6.949190      6.313780      3.165550     0.065557    0.166421    0.004026
            27    0       6.980470      6.328930      6.330290    -0.038554    0.013736    0.036137
            28    0       1.743350      1.575780      1.592570    -0.000331    0.062928   -0.106018
            29    0       1.759310      1.591980      4.734220    -0.077778   -0.063332    0.200186
            30    0       1.732530      1.575060      7.927520     0.063243    0.093536   -0.077563
            31    0       1.742210      4.745470      1.580140    -0.028216    0.061754   -0.007025
            32    0       1.730660      4.761900      4.739210     0.041023   -0.136461    0.115871
            33    0       1.743700      4.746360      7.921340    -0.020513    0.063248   -0.039538
            34    0       1.749200      7.921490      1.602180    -0.024913   -0.055536   -0.139428
            35    0       1.735590      7.905530      4.762950     0.050521    0.170857   -0.074245
            36    0       1.741420      7.929070      7.917190    -0.008536   -0.128811    0.084001
            37    0       5.230550      1.590640      1.573450    -0.016151   -0.077875    0.048839
            38    0       5.206510      1.577360      4.746420     0.076614    0.093868    0.020677
            39    0       5.236470      1.583490      7.912730    -0.036796   -0.060051    0.028757
            40    0       5.207610      4.741340      1.574130     0.061381    0.143243    0.046074
            41    0       5.234200      4.746800      4.748570    -0.048090    0.054873    0.001330
            42    0       5.220710      4.745600      7.909770     0.014398    0.056980    0.054686
            43    0       5.223370      7.921860      1.580450     0.008472   -0.068961    0.041754
            44    0       5.241320      7.934540      4.749000    -0.075071   -0.217102    0.041934
            45    0       5.228720      7.909920      7.929650    -0.025422    0.034651   -0.132173
            46    0       8.702660      1.594410      1.595080     0.015173   -0.121081   -0.120165
            47    0       8.695950      1.576710      4.764570     0.041635    0.029077   -0.125351
            48    0       8.729720      1.582340      7.904630    -0.060151    0.111750    0.223940
            49    0       8.698630      4.754690      1.593060     0.024862   -0.040854   -0.137830
            50    0       8.697630      4.745100      4.746500     0.064143   -0.017546    0.063309
            51    0       8.714160      4.773550      7.913950     0.002972   -0.149391    0.093039
            52    0       8.702580      7.907010      1.589170     0.022189    0.152349   -0.036428
            53    0       8.711200      7.909290      4.745090    -0.000740    0.048699    0.083915
            54    0       8.704200      7.940320      7.928740     0.056364   -0.149897   -0.084262
 Energy
       -579.059552930000
 PlusStress:  xx          yy          zz          yz          xz          xy
      -199.24968   -82.60176   -82.60447     0.02202     0.01500     0.01125
 Feature   EFS_by	VASP
 Feature   mindist	2.801270
END_CFG

BEGIN_CFG
 Size
    54
 Supercell
         9.450120      0.000000      0.000000
         0.000000      9.450120      0.000000
         0.000000      0.000000      9.450120
 AtomData:  id type       cartes_x      cartes_y      cartes_z           fx          fy          fz
             1    0       0.737470      9.303460      7.832150    -1.095740   -0.108808    1.920182
             2    0       0.551810      2.347360      8.876210    -2.728329    0.881408   -0.248499
             3    0       3.496690      0.594900      1.848420     2.609205   -3.299669    3.500543
             4    0       3.803720      6.563990      8.661900     1.454841    0.740033    0.526870
             5    0       7.961400      3.377860      7.508110     0.093695    1.030341    0.101347
             6    0       7.201350      2.656990      4.627820     0.800713   -1.759475    0.914819
             7    0       0.943350      0.588530      1.571810    -0.227491   -1.899154   -1.598631
             8    0       6.295360      4.266690      3.189610    -0.167809   -0.846498   -0.350368
             9    0       6.163840      8.014220      8.549340    -1.645711    1.325490   -0.444709
            10    0       7.565020      7.407100      3.420320    -0.905728    2.308388    1.973739
            11    0       4.296140      1.847350      4.576520     3.423881   -2.534435    1.596364
            12    0       3.752600      2.859710      2.061360     2.796003    3.917272   -1.683630
            13    0       5.765850      4.140890      6.047850     0.564605    0.206851   -0.031396
            14    0       2.071690      1.651840      3.520370    -2.346067    2.342115    1.768694
            15    0       1.559600      6.547710      0.720490    -2.226919   -0.138455    2.396636
            16    0       3.453970      7.462860      2.179020    -1.230298   -0.189253    1.055844
            17    0       3.334530      8.163600      6.702010    -1.036832   -2.840178    0.986814
            18    0       0.436090      3.338240      4.966100     0.508638   -1.653052   -0.799219
            19    0       8.957570      0.378280      3.899850    -0.479493   -0.191236   -0.878283
            20    0       0.379970      7.914650      5.468270    -2.983775    1.694199    1.477601
            21    0       4.614600      5.507640      1.339060    -0.538911   -3.462428    0.616229
            22    0       8.181400      0.405450      0.997440    -3.188685    0.616328   -0.461489
            23    0       2.506170      4.402470      0.041640    -0.232611   -1.341695   -1.169343
            24    0       3.033580      3.105910      7.013280     1.224200   -1.070070    0.189253
            25    0       7.413850      5.943200      1.585720     1.760798   -0.214748   -1.067039
            26    0       3.337460      4.032680      4.396270    -2.881551   -3.408259    1.182398
            27    0       5.428270      3.360860      8.847270    -3.810943   -2.199198    0.578298
            28    0       0.888600      4.497600      6.967500     0.688363   -5.398626   -2.166899
            29    0       8.863470      5.414390      3.986480    -0.534584   -1.026312    1.555022
            30    0       5.174900      0.779470      0.007990     4.230180    1.500887    4.680852
            31    0       1.125810      6.509390      7.488150     4.992801    7.047693    2.203912
            32    0       1.988220      0.979780      6.107960    -1.060924    1.975250   -0.328017
            33    0       9.149000      2.568690      2.547240    -0.288953    1.671475   -0.600677
            34    0       2.762230      1.764070      9.258470    -0.017437    1.536543   -1.890826
            35    0       6.167900      7.028110      6.183610    -2.995388   -5.362753   -1.113579
            36    0       2.267120      6.695100      4.885100     0.414678   -8.139156   -1.086016
            37    0       4.276870      0.560830      7.448440    -0.545059    0.554505   -3.411559
            38    0       8.470880      7.833110      9.076620     1.805315    0.176020    2.196625
            39    0       5.051350      8.358030      4.773570     0.583381    2.803527   -2.918005
            40    0       2.517080      8.656280      9.360330     0.992431   -1.161201   -1.355264
            41    0       9.158700      5.158840      9.167530    -0.516172   -3.433321    4.831267
            42    0       7.324630      3.279020      1.052210    -0.591903   -1.223785   -1.579871
            43    0       5.969690      1.159580      2.702490     1.443255   -0.133511    0.145695
            44    0       2.624550      8.734020      4.325080     0.954867    6.745974   -3.497566
            45    0       6.278300      1.709140      7.203200     1.623531   -1.075579   -1.380938
            46    0       7.579550      8.684160      6.384020     0.743517    2.450025   -0.212721
            47    0       4.582910      5.753980      4.042410     3.353313    6.169353   -1.362975
            48    0       8.811710      1.164440      6.208240     0.301268    2.917551    1.273571
            49    0       8.303730      6.210830      7.241790    -3.469655   -0.324280   -3.768729
            50    0       6.142490      5.439350      8.720100     2.572606    2.189251   -0.945165
            51    0       3.586600      5.402680      6.456140     0.978805   -0.166900    3.907387
            52    0       0.836550      7.548730      3.100980    -3.137447   -1.403208   -4.656939
            53    0       5.688590      7.826750      1.510990     0.956569    2.020243    0.871623
            54    0       1.593410      4.527420      2.673560    -0.987040    1.184520   -1.443233
 Energy
       -533.452094040000
 PlusStress:  xx          yy          zz          yz          xz          xy
       151.07942   188.52416   151.84749     1.18214    10.04237    -1.22145
 Feature   EFS_by	VASP
 Feature   mindist	2.091565
END_CFG

BEGIN_CFG
 Size
    54
 Supercell
         9.450120      0.000000      0.000000
         0.000000      9.450120      0.000000
         0.000000      0.000000      9.450120
 AtomData:  id type       cartes_x      cartes_y      cartes_z           fx          fy          fz
             1    0       0.917240      0.232810      8.527040    -4.792209   -3.187228    0.014311
             2    0       0.260810      2.519850      8.733310     2.274614    2.178267    2.861862
             3    0       4.032160      7.476780      2.531040    -1.360958    0.558040    0.197071
             4    0       5.275960      7.196000      0.464400    -3.666121   -3.110422   -4.247287
             5    0       7.892010      4.752510      7.152900     2.338509   -2.600909    1.486017
             6    0       6.559490      2.374470      5.789870     1.168853   -0.332125   -1.488218
             7    0       0.244070      9.018920      2.017420    -1.468928    5.430160    0.935161
             8    0       7.735430      4.415440      2.955600    -1.663679    2.642908    2.725657
             9    0       5.150670      7.835690      7.057340    -3.386989   -1.120943    3.147182
            10    0       7.414900      8.691060      3.957620    -0.252540    2.743941   -0.352624
            11    0       4.904720      0.290360      5.313110     1.587548    0.072038   -1.712877
            12    0       1.751860      2.317990      1.842590     1.651908   -1.853171   -2.451780
            13    0       5.959450      4.946340      5.283010    -1.492856    0.176828   -0.709687
            14    0       2.560870      0.548680      3.757250     0.463251    0.305168   -0.842871
            15    0       1.633230      6.833650      1.351780     0.869526   -2.981772   -0.688951
            16    0       1.591170      7.891310      3.572840     0.462585   -0.670804    3.117985
            17    0       2.704750      8.629260      6.246110    -1.338369   -2.188328   -0.733516
            18    0       2.441790      3.743950      4.587300    -6.905972    1.725133   -5.460502
            19    0       0.442080      2.118070      3.959190    -2.717690   -0.841229    0.234484
            20    0       0.156060      0.069270      5.353780     2.222235   -3.831724   -1.859411
            21    0       4.079270      4.530410      0.723950    -2.352663    6.492442    1.429750
            22    0       7.169680      2.311990      8.178270    -2.177398    1.291728    3.811552
            23    0       1.647770      4.801230      9.137460    -2.879886    0.515222    3.320373
            24    0       4.168570      3.343240      5.731270     8.561655    3.582773    6.553310
            25    0       6.670920      6.948700      2.286020    -2.094089   -3.202784    3.336221
            26    0       4.389770      2.083340      3.811120     1.945643    0.613104   -4.349800
            27    0       5.677240      4.667150      8.021940    -1.753451   -1.452460    0.878096
            28    0       3.261710      3.191660      8.278070     1.625290   -2.652652   -0.119735
            29    0       8.691350      4.148370      5.032520     3.449593   -0.943866    0.562068
            30    0       4.284480      2.350470      1.073560    -2.980702   -7.171121   -0.474251
            31    0       1.330390      3.952380      6.970230    -2.331588    1.176359   -3.818090
            32    0       2.646660      1.884670      6.104750    -5.175845   -7.660057    2.566697
            33    0       8.422540      2.838360      1.258570     3.918647   -4.391332   -1.837499
            34    0       2.545830      9.128480      1.088870     1.008451    1.189480    1.857140
            35    0       7.725410      6.580110      5.060150     1.501479    1.552353    0.620473
            36    0       1.446270      6.152200      5.196450     0.261963   -0.701918   -0.116486
            37    0       3.101000      0.508610      8.441800     1.853089   -0.483006   -0.128513
            38    0       8.141320      7.865810      0.693890     4.394445   -1.226675   -3.096629
            39    0       5.028700      7.214000      4.844080     0.004622    0.386736   -1.865389
            40    0       2.003480      7.213230      8.490280     1.231887    2.309501   -0.243897
            41    0       8.493660      5.145970      0.523280    -0.255285    1.320038   -2.484739
            42    0       6.056150      3.420950      1.576170     0.006131    4.629856   -2.070034
            43    0       7.079610      2.053410      3.022940    -0.077118   -5.536679    4.170812
            44    0       5.200260      9.344340      1.905420    -0.287681    4.164903    3.667447
            45    0       5.293130      0.807050      7.816490    -0.898008    3.545963   -2.462646
            46    0       7.575970      8.970490      6.815690    -0.164585    0.503934    0.029543
            47    0       3.512640      5.546190      3.573560     0.296354   -2.041800   -0.629547
            48    0       8.938770      1.694260      6.786330     1.020515    1.647176   -3.917962
            49    0       0.064990      6.807780      6.936940    -0.542142    1.334083    1.766964
            50    0       6.970100      6.794410      8.094370     2.126133   -0.337159    0.290433
            51    0       3.289090      5.599570      7.267490     2.612564    1.741519   -3.202210