
0.000000000 5.021502975 xlo xhi
0.000000000 22.042300000 ylo yhi
0.000000000 4.348747424 zlo zhi
0.000000000 -2.510748513 0.000000000 xy xz yz

35 atoms

2 atom types

Atoms

     1     1          1.18670506          0.00564000          2.06968735
     2     1          1.18369263          5.59225000          2.14704510
     3     1          1.31306737         10.81120000          1.97036132
     4     1          1.21086646         16.46470000          2.01303855
     5     1          3.69501386          1.86733000          2.29306835
     6     1         -1.33824345          7.48106000          2.41440753
     7     1         -1.14750810         12.71310000          2.11486398
     8     1          3.72768612         18.33560000          2.23457830
     9     1          2.56635140          3.72708000          0.04592814
    10     1          2.43662788          9.37094000          0.24021602
    11     1          0.11816535         14.59470000          4.27851411
    12     1          0.09159717         20.19120000          4.33555159
    13     2          2.28156636          1.11097000          2.54533188
    14     2          2.31038015          6.65208000          2.63442496
    15     2          2.54737686         11.81190000          2.38677440
    16     2          2.31541215         17.56970000          2.46646918
    17     2          1.62427832          4.85224000          0.76274731
    18     2          1.64779165         15.68130000          0.65330096
    19     2          1.65675380         21.31310000          0.69663810
    20     2          3.52807918          3.00337000          1.13908708
    21     2          3.49825789          8.60037000          1.23643913
    22     2          3.58365583         13.89130000          1.03548542
    23     2          3.56239556         19.47910000          1.08880933
    24     2          0.99857365          4.45077000          3.29014132
    25     2          0.82565844         10.07280000          3.38243934
    26     2          1.05452749         15.37600000          3.20712634
    27     2          1.03296046         20.92090000          3.23212155
    28     2         -0.86871039          2.59321000          3.67531301
    29     2         -0.99157043          8.23465000          3.82601297
    30     2         -0.72853035         13.42440000          3.52163392
    31     2         -0.83469267         19.05310000          3.62135254
    32     2         -0.22828677          0.76481000          1.81466544
    33     2         -0.19489851          6.42602000          1.93913534
    34     2          0.03831768         11.74930000          1.52375272
    35     2         -0.19431078         17.23720000          1.75057725
