BEGIN_CFG
 Size
    35
 Supercell
        -2.510750      4.348750      0.000000
         0.000000      0.000000     22.042300
         5.021500      0.000000      0.000000
 AtomData:  id type       cartes_x      cartes_y      cartes_z           fx          fy          fz
             1    0       1.199050      2.062560      0.005640     0.007434   -0.008847    0.036562
             2    0       1.267550      2.098630      5.592250     0.027487    0.002043    0.037285
             3    0       1.049850      2.122330     10.811200    -0.016601    0.009462   -0.054522
             4    0       1.137910      2.055160     16.464700    -0.019374   -0.006138    0.029217
             5    0       0.138350      4.346510      1.867330     0.010220    0.006209    0.004813
             6    0       2.760060      0.048250      7.481060     0.018241    0.010775    0.065440
             7    0       2.405280      0.063660     12.713100    -0.029870   -0.001166   -0.038972
             8    0       0.071360      4.345560     18.335600    -0.018105   -0.011697   -0.064292
             9    0      -1.243400      2.245490      3.727080     0.025012   -0.008368   -0.022952
            10    0      -1.010280      2.230290      9.370940     0.029960   -0.009273    0.037559
            11    0       3.646220      2.241590     14.594700    -0.018893   -0.007520    0.048170
            12    0       3.708900      2.247100     20.191200     0.006868   -0.008201   -0.039430
            13    1       1.063540      3.248560      1.110970     0.018177   -0.012368   -0.027606
            14    1       1.126290      3.318060      6.652080     0.037641   -0.016030   -0.021123
            15    1       0.793320      3.399480     11.811900    -0.027939    0.070912   -0.015382
            16    1       0.978320      3.238440     17.569700    -0.024276    0.018963   -0.014104
            17    1      -0.151580      1.788040      4.852240     0.032730   -0.020973    0.020073
            18    1      -0.258120      1.753680     15.681300    -0.061718   -0.017838   -0.060308
            19    1      -0.225070      1.783110     21.313100    -0.002033   -0.026148   -0.009304
            20    1      -0.777560      3.624950      3.003370     0.002248   -0.020544    0.037044
            21    1      -0.678340      3.647800      8.600370     0.011795    0.019071    0.003468
            22    1      -0.895070      3.621280     13.891300    -0.006240    0.017890   -0.024941
            23    1      -0.838260      3.629530     19.479100    -0.039199   -0.041300    0.035791
            24    1       2.350060      2.509860      4.450770     0.016452    0.004317    0.021290
            25    1       2.516450      2.406260     10.072800     0.003911    0.002441    0.022464
            26    1       2.250190      2.516810     15.376000     0.047068    0.009840   -0.056959
            27    1       2.282620      2.510630     20.920900     0.008646   -0.003549   -0.006046
            28    1       3.617270      1.085330      2.593210     0.036045    0.009121    0.025075
            29    1       3.809210      1.054280      8.234650     0.019757   -0.020655   -0.006289
            30    1       3.414090      1.129890     13.424400    -0.011119   -0.006691   -0.028067
            31    1       3.553530      1.087810     19.053100     0.020208    0.024629    0.019358
            32    1       1.685690      0.709630      0.764810    -0.024372    0.019344    0.003031
            33    1       1.776790      0.800780      6.426020    -0.016422    0.032081   -0.004462
            34    1       1.300450      0.795060     11.749300    -0.037059    0.000346    0.040442
            35    1       1.613200      0.707010     17.237200    -0.026679   -0.010142    0.007679
 Energy
       -273.366308750000
 PlusStress:   xx          yy          zz          yz          xz          xy
     -6.55798    1.45179     -3.42175     -0.27014     -4.42958     -0.62995
 Feature   EFS_by	VASP
 Feature   mindist	1.618769
END_CFG

