BEGIN_CFG
 Size
    53
 Supercell
         9.450120      0.000000      0.000000
         0.000000      9.450120      0.000000
         0.000000      0.000000      9.450120
 AtomData:  id type       cartes_x      cartes_y      cartes_z           fx          fy          fz
             1    0       9.404510      9.404740      3.104700     0.555130    0.547988    0.472167
             2    0       9.398670      9.406060      6.298520     0.618690    0.545375    0.685353
             3    0       9.402530      3.095820      9.408990     0.578345    0.540191    0.501942
             4    0       9.406250      3.116330      3.123040     0.492616    0.173665    0.122803
             5    0       9.404980      3.114320      6.226510     0.538104    0.368129    1.254812
             6    0       9.398600      6.296100      9.405550     0.624396    0.718413    0.561704
             7    0       9.409620      6.221530      3.113600     0.494458    1.304962    0.385923
             8    0       9.408830      6.242150      6.242470     0.543407    0.994619    0.976196
             9    0       3.096550      9.408630      9.410650     0.591859    0.494768    0.476796
            10    0       3.116300      9.413100      3.124640     0.216322    0.453795    0.101702
            11    0       3.104260      9.413610      6.222390     0.490573    0.421703    1.328552
            12    0       3.113190      3.121350      9.414800     0.227992    0.137043    0.396510
            13    0       3.094920      3.105000      3.103670     0.454423    0.377101    0.381642
            14    0       3.092520      3.099760      6.260140     0.600703    0.533957    0.729713
            15    0       3.104420      6.222170      9.416590     0.473932    1.340150    0.392907
            16    0       3.095800      6.261600      3.101960     0.589040    0.711958    0.495368
            17    0       3.098370      6.258520      6.256210     0.730887    0.676247    0.707912
            18    0       6.291070      9.408740      9.406580     0.831464    0.508307    0.501970
            19    0       6.216710      9.413960      3.110060     1.442808    0.442331    0.437703
            20    0       6.229400      9.417900      6.239780     1.155809    0.410773    0.980404
            21    0       6.217230      3.107540      9.413260     1.411201    0.487256    0.419095
            22    0       6.245790      3.101600      3.102000     0.897242    0.530035    0.518682
            23    0       6.252990      3.102730      6.258250     0.704810    0.716158    0.642439
            24    0       6.228500      6.242890      9.423910     1.187939    0.947953    0.348965
            25    0       6.254740      6.256610      3.103520     0.725857    0.674426    0.719639
            26    0       6.258140      6.265900      6.268500     0.616058    0.512150    0.494762
            27    0       1.617650      1.597950      1.601220    -0.417630   -0.209631   -0.234661
            28    0       1.579920      1.574640      4.790430    -0.047000    0.077793   -0.961631
            29    0       1.619560      1.606710      7.934050    -0.557058   -0.420065   -0.596186
            30    0       1.580770      4.791680      1.571320    -0.033737   -0.999845    0.105717
            31    0       1.605120      4.769430      4.765510    -0.333346   -0.786315   -0.736750
            32    0       1.599360      4.788630      7.931310    -0.351061   -0.897537   -0.929369
            33    0       1.618800      7.935240      1.615370    -0.523980   -0.618929   -0.511016
            34    0       1.601230      7.934370      4.783330    -0.361677   -0.963783   -0.803181
            35    0       1.645750      7.922890      7.922550    -0.980146   -0.391534   -0.386037
            36    0       4.797850      1.582780      1.574500    -1.062339   -0.047312    0.024249
            37    0       4.769190      1.597250      4.762980    -0.831338   -0.201814   -0.715173
            38    0       4.795920      1.599310      7.923870    -0.997587   -0.347408   -0.838978
            39    0       4.772210      4.768090      1.596000    -0.855312   -0.749032   -0.184204
            40    0       4.769380      4.765890      4.767070    -0.687187   -0.622746   -0.640904
            41    0       4.763230      4.761170      7.949570    -0.687868   -0.643552   -1.162954
            42    0       4.800110      7.934060      1.597780    -1.034389   -0.933258   -0.327293
            43    0       4.765410      7.948580      4.757480    -0.706300   -1.175066   -0.602606
            44    0       4.799620      7.911830      7.914430    -0.995059   -0.580485   -0.624321
            45    0       7.942510      1.609890      1.610440    -0.655232   -0.478570   -0.476745
            46    0       7.930330      1.597670      4.785840    -0.919677   -0.335383   -0.867557
            47    0       7.931130      1.643220      7.913450    -0.457867   -0.987388   -0.280012
            48    0       7.935640      4.787540      1.599990    -0.974015   -0.901498   -0.363311
            49    0       7.954570      4.758220      4.758640    -1.259767   -0.619968   -0.611052
            50    0       7.921190      4.791650      7.909350    -0.755997   -0.876869   -0.544338
            51    0       7.933910      7.920020      1.642030    -0.467670   -0.336320   -0.978702
            52    0       7.923080      7.908370      4.788650    -0.765846   -0.560730   -0.839494
            53    0       7.910320      7.903010      7.901240    -0.074985    0.037791    0.050849
 Energy
       -573.727528560000
 PlusStress:  xx          yy          zz          yz          xz          xy
        12.64237    12.67817    12.77297     2.12678     2.38932     2.41351
 Feature   EFS_by	VASP
 Feature   mindist	2.546341
END_CFG

BEGIN_CFG
 Size
    54
 Supercell
         9.450120      0.000000      0.000000
         0.000000      9.450120      0.000000
         0.000000      0.000000      9.450120
 AtomData:  id type       cartes_x      cartes_y      cartes_z           fx          fy          fz
             1    0       0.229970      8.692960      7.753470    -2.256110    2.799625   -1.688842
             2    0       1.064840      2.904270      1.108740    -1.835445   -0.482266   -1.084979
             3    0       3.947580      7.666310      1.161140     0.592955   -0.763867   -0.577900
             4    0       4.089120      6.282640      8.175630    -1.005025    0.277641    2.899553
             5    0       8.172560      4.112150      8.497340     1.631955   -0.042245   -2.761622
             6    0       7.347990      2.407830      4.720300    -0.748622   -0.477379    2.329176
             7    0       1.373620      0.411180      1.256200    -1.195212    0.307291    1.731987
             8    0       6.210010      4.427610      3.208880     0.985139   -1.143075    2.015116
             9    0       6.062100      7.858350      6.780430     3.343577   -3.329430    2.469508
            10    0       7.983050      8.235170      2.641860     1.450895    8.859431   -0.577760
            11    0       4.934200      1.672990      4.635490     1.756094   -0.267702    0.587139
            12    0       3.515880      2.491490      1.227400     0.267627    0.730289   -0.015744
            13    0       5.946070      4.837070      6.088190    -1.343559   -0.772939    0.796408
            14    0       2.652480      1.881270      3.580670    -4.393648   -1.786906    1.248708
            15    0       1.399700      7.444440      1.370220    -3.170195    1.649181   -4.659660
            16    0       1.997280      7.177450      3.403670     2.911777    0.315103    3.773517
            17    0       3.747120      7.249660      5.910340    -4.576901    2.362252    3.255589
            18    0       0.727200      3.021520      5.537010     0.560938   -1.180477    0.889194
            19    0       9.247520      1.081310      3.606900     1.316060   -1.054111   -0.510414
            20    0       0.152430      8.012100      4.840780     1.012848    3.244582    1.532036
            21    0       4.326850      4.904430      1.770370     2.873489    1.127443   -1.715209
            22    0       8.249270      0.835910      0.814440     0.459944    1.780584   -0.945147
            23    0       2.236870      5.310410      1.001770    -1.239015   -1.894197   -2.216447
            24    0       3.544860      2.079090      6.531580     0.231360    2.245696   -0.004836
            25    0       6.638460      6.598770      1.980990    -9.473557    0.573144    1.102200
            26    0       3.644480      3.874770      3.969320     1.169614    1.656651    2.088269
            27    0       4.794120      3.873270      8.648860    -1.600109   -0.379546   -0.736722
            28    0       1.843150      3.636530      8.135550    -0.756983    0.758281    0.942554
            29    0       8.250300      4.833790      5.189510     0.724074   -3.938059    0.724623
            30    0       5.516010      1.428710      0.042250    -2.804420   -2.472322    0.097657
            31    0       0.676450      6.389950      8.326040     3.841674   -4.039976    1.975465
            32    0       1.650200      0.561660      6.143410     0.509279   -0.797788   -3.294462
            33    0       8.777290      3.544180      3.041620    -4.999996   -3.260657   -2.757751
            34    0       2.294610      1.030190      8.605120     0.585570    5.581369    0.691067
            35    0       7.228770      6.938190      4.556810    -3.314116   -1.805238    3.414859
            36    0       1.152200      5.736430      5.576980     1.907176    0.031422    0.883526
            37    0       4.623060      9.440780      7.440810    -0.025331    2.943382   -1.169315
            38    0       8.358690      7.935260      0.077170     0.467729   -0.739803    0.210984
            39    0       5.506890      8.462830      4.457410    -0.731101    5.518080   -2.888385
            40    0       2.575530      8.384280      8.172110     0.715620   -5.337494    1.189650
            41    0       8.303770      5.483480      1.138150     5.725617   -3.996877   -4.342782
            42    0       6.748510      3.230560      0.839650     0.998099    2.676387    1.691403
            43    0       6.295200      1.446970      2.446800     0.547754   -2.127857    2.239764
            44    0       3.579880      9.431780      2.763870     1.240065   -1.656612   -0.649665
            45    0       6.775310      2.287240      7.671370    -1.507686   -0.090490   -3.486089
            46    0       7.538190      0.157570      5.701280     1.233836    0.255389    0.447951
            47    0       4.330500      6.444650      4.068560     1.781646   -4.125168   -5.099497
            48    0       9.073650      1.736050      7.534440     1.691042    0.012916    0.309787
            49    0       8.492770      6.461900      6.808370    -3.192395    2.069424    1.398851
            50    0       6.354930      5.878990      8.989090    -0.183900    0.356162   -2.239780
            51    0       3.297810      4.701760      6.506220    -0.273335   -0.602226   -1.671037
            52    0       9.036980      6.236300      3.124730     4.667220   -1.893195    1.721718
            53    0       6.095710      8.410100      0.068960    -2.033422    0.717606    0.202125
            54    0       1.266390      4.303730      3.329810     5.459412    1.608567    0.233661
 Energy
       -530.274634690000
 PlusStress:  xx          yy          zz          yz          xz          xy
       169.74052   185.48556   157.66281     9.71482    -6.08902    -9.09224
 Feature   EFS_by	VASP
 Feature   mindist	2.092971
END_CFG

BEGIN_CFG
 Size
    53
 Supercell
         9.450120      0.000000      0.000000
         0.000000      9.450120      0.000000
         0.000000      0.000000      9.450120
 AtomData:  id type       cartes_x      cartes_y      cartes_z           fx          fy          fz
             1    0       1.712800      1.635760      1.887900    -3.719103   -3.754673    2.219834
             2    0       8.551000      8.769920      5.918040     0.421728    1.183112   -1.804783
             3    0       0.112880      3.491320      0.304920    -3.046852   -3.074720   -3.736562
             4    0       9.149050      3.205790      3.184530     2.198591   -1.570336    2.019249
             5    0       0.000300      3.048870      6.186430    -0.972333    0.926284    0.869984
             6    0       9.028180      6.362650      0.142100     3.499534    0.688702   -0.803060
             7    0       0.039800      6.588840      3.306910    -1.091744   -1.697870    0.247189
             8    0       1.286820      7.901440      4.955910     2.856136    0.221160    0.497281
             9    0       1.290040      1.601930      8.282620     1.593852    0.607205   -2.881200
            10    0       3.071980      9.117290      3.380940     1.117970    3.427736   -0.803114
            11    0       2.903560      9.435410      6.497610     1.294380   -0.122704   -0.741851
            12    0       2.953250      2.688460      0.564780     2.820878    5.103846   -4.549665
            13    0       3.457620      2.996950      3.487430    -3.041279    1.833039   -1.102600
            14    0       2.748520      3.083990      6.657290     2.024976   -0.020090   -1.553586
            15    0       3.336720      6.161280      0.178090    -0.276326    0.930634   -0.799452
            16    0       2.913030      6.269760      3.145650     2.355191   -0.851176   -0.378318
            17    0       3.202530      6.178560      6.342680    -0.621331    2.108084   -0.935504
            18    0       6.203050      0.440850      9.351680     1.211656   -2.383012    0.708128
            19    0       6.341220      9.188120      3.402170     0.629391    0.396892    0.721810
            20    0       6.158620      0.112580      6.757720    -1.752817   -0.677489   -2.626353
            21    0       6.859870      3.067840      0.170790    -2.492520   -1.839439    0.681143
            22    0       6.186760      3.144010      3.201960     2.621745   -0.217273   -0.763535
            23    0       6.108940      3.286260      6.356070    -0.690799   -4.531625   -3.364403
            24    0       6.384100      5.597430      9.261200    -3.394839    5.448630    3.148651
            25    0       6.483390      6.099570      2.839370    -3.502926    3.725245    2.434219
            26    0       6.688320      6.566360      6.151030    -2.872830    0.717701   -0.043191
            27    0       3.189840      9.431390      9.387560    -0.751646   -2.022757    2.212225
            28    0       1.690900      1.750010      4.835890    -1.648951   -1.507077    0.337710
            29    0       0.022250      0.059730      0.061420    -0.415426   -1.806258    2.220687
            30    0       1.458430      4.516250      1.634790     3.352819    4.262372    2.864206
            31    0       1.622670      4.843190      4.616410    -0.903383   -1.097438    1.662545
            32    0       1.702170      4.961990      7.826850    -1.877178   -0.529692    2.159807
            33    0       1.704100      7.983770      1.748750    -1.485358   -1.385885   -2.322114
            34    0       0.256760      0.159550      3.284470    -2.546207   -0.227704    1.235156
            35    0       1.475960      7.984270      7.937130     0.008784   -1.151676    0.211857
            36    0       4.951230      1.350710      1.666240    -1.769117    0.439236    1.572044
            37    0       4.793940      1.436800      4.566020    -1.204589   -1.349375    2.979477
            38    0       4.361780      1.674300      8.085330     1.877371    0.216403   -1.332746
            39    0       4.622360      4.274750      1.581030     1.481874    2.516323   -0.550558
            40    0       5.075620      4.995300      4.496020    -2.722775   -0.469652    1.851043
            41    0       4.750200      4.637140      7.486410    -2.043381    1.508310    3.441309
            42    0       4.802900      8.030640      1.763600    -0.001563   -1.712018   -1.597020
            43    0       4.583610      7.779970      4.613710     0.882990   -0.602374    2.999888
            44    0       4.839510      7.871400      8.174470    -0.986704   -1.299518   -1.417806
            45    0       7.806310      1.372080      1.788160     1.182260    1.832775    0.532181
            46    0       7.370970      1.559100      4.931380     3.875989    0.550224   -0.465355
            47    0       8.159440      1.336560      7.813110    -0.395317    2.255136   -0.638648
            48    0       8.000260      4.904920      1.815370     0.776404   -2.292119   -1.435208
            49    0       7.917770      4.772130      4.818710     0.126067   -0.881633   -1.009425
            50    0       7.474120      4.425080      7.771010     7.140930    1.061202   -2.268623
            51    0       8.036080      8.133970      1.938630    -0.632072   -1.837338   -2.393780
            52    0       9.309410      6.241890      6.330860     1.940327   -0.339660    1.173007
            53    0       7.827150      7.900040      8.088930    -0.432480   -0.707673    1.317826
 Energy
       -545.429034340000
 PlusStress:  xx          yy          zz          yz          xz          xy
        91.71946    76.73978    77.23401     0.17371    -4.15125    -3.18819
 Feature   EFS_by	VASP
 Feature   mindist	2.097031
END_CFG

BEGIN_CFG
 Size
    53
 Supercell
         9.450120      0.000000      0.000000
         0.000000      9.450120      0.000000
         0.000000      0.000000      9.450120
 AtomData:  id type       cartes_x      cartes_y      cartes_z           fx          fy          fz
             1    0       0.053370      9.438120      3.173140    -0.869675    0.399378    0.135722
             2    0       0.076620      9.386200      6.402860    -1.050186    0.772194   -0.170405
             3    0       0.058160      3.150330      0.004380    -1.135062    0.291877   -0.051251
             4    0       0.061930      3.106380      3.086900    -1.485009    0.917415    1.325047
             5    0       0.073930      3.076540      6.277710    -1.298035    0.971892    0.557646
             6    0       0.092830      6.335590      9.421450    -1.291276    0.459610    0.276347
             7    0       0.060210      6.296820      3.087710    -1.052101    0.456965    1.140652
             8    0       0.077160      6.246690      6.289790    -1.340400    0.490205   -0.044124
             9    0       3.214200      9.403550      9.385570    -0.403034    0.313771    0.665575
            10    0       3.226930      9.450040      3.119660    -0.798032   -0.070607    0.356198
            11    0       3.157990      9.348720      6.261400     0.084591    1.028014    0.511618
            12    0       3.204740      3.082300      0.028720    -0.686328    0.810785   -0.575018
            13    0       3.121410      3.064940      3.092120    -0.200429    0.855031    0.630097
            14    0       3.174390      3.125880      6.216500    -0.660793   -0.379151    1.230606
            15    0       3.152280      6.231750      9.324080     0.143521    0.870148    1.174974
            16    0       3.169750      6.218970      3.087860    -0.692216    1.206449    0.240239
            17    0       3.164730      6.188480      6.216470    -0.273784    1.186823    0.523665
            18    0       6.475340      9.415790      9.442720    -1.360461    0.480702    0.345256
            19    0       6.335660      9.411640      3.150960    -0.137780    0.744866    0.243088
            20    0       6.372280      9.390360      6.269600    -0.945005    0.647168    0.914274
            21    0       6.307760      3.143800      0.009460     0.240948    0.303682   -0.305654
            22    0       6.201690      3.116750      3.070540     1.284335    0.267307    0.922961
            23    0       6.289270      3.106060      6.188420     0.168222    0.328909    1.374200
            24    0       6.343350      6.242460      9.376600    -0.444762    1.132350    0.606755
            25    0       6.269780      6.218970      3.106580     0.340346    1.099499    0.275589
            26    0       6.305880      6.176550      6.161590    -0.088262    1.247582    1.246432
            27    0       1.544700      1.692040      1.675660     0.530733   -1.809019   -1.452524
            28    0       1.449090      1.540110      4.790680     2.005383    0.041103   -0.338054
            29    0       1.546200      1.710480      7.952140     0.423202   -1.951933   -0.298285
            30    0       1.450140      4.792380      1.568100     2.103727   -0.347881   -0.395465
            31    0       1.500250      4.725050      4.709490     0.731916   -0.385831   -0.269134
            32    0       1.515650      4.730630      7.861840     0.895479   -0.063039   -0.056286
            33    0       1.583340      7.984730      1.731970     0.114147   -0.604693   -2.193310
            34    0       1.508290      7.882810      4.745710     0.984255   -0.447271    0.000875
            35    0       1.571740      7.868390      7.845570     0.355152    0.254107    0.814127
            36    0       4.759390      1.586450      1.544440    -0.352074   -0.437424    0.309583
            37    0       4.696260      1.599730      4.752860     0.100535   -0.695820   -0.484202
            38    0       4.713550      1.598630      7.933750     0.117262   -0.372572   -0.951937
            39    0       4.685930      4.746430      1.571990     0.067167   -0.274688   -0.574341
            40    0       4.568660      4.695130      4.670620     1.829928    0.060864    0.157566
            41    0       4.671690      4.727880      7.916650     0.541423   -0.268709   -1.061855
            42    0       4.730710      7.930560      1.622430    -0.077397   -0.824047   -0.945677
            43    0       4.675020      7.949510      4.705210     0.481967   -1.422363    0.240261
            44    0       4.745370      7.918070      7.879880     0.034727   -0.856313   -0.357020
            45    0       7.864020      1.704040      1.687840     0.195441   -1.133801   -0.869865
            46    0       7.894090      1.577240      4.857310    -0.382049    0.204425   -1.221627
            47    0       7.791240      1.662820      7.954830     1.225199   -0.674490   -0.363795
            48    0       7.896370      4.846840      1.608470    -0.558159   -1.032977   -0.444492
            49    0       7.866110      4.750610      4.715860    -0.108643   -0.439298   -0.117202
            50    0       7.838080      4.782590      7.949670     0.368612   -0.602778   -1.105228
            51    0       7.811210      7.931850      1.695300     1.133949   -0.329611   -1.252503
            52    0       7.838710      7.995060      4.776080     0.453663   -1.877532   -0.348749
            53    0       7.870230      7.924960      7.901230     0.735119   -0.541274    0.028644
 Energy
       -572.356538600000
 PlusStress:  xx          yy          zz          yz          xz          xy
        17.14426    16.62782    17.38588     2.62635    -1.78873    -2.39368
 Feature   EFS_by	VASP
 Feature   mindist	2.488084
END_CFG

BEGIN_CFG
 Size
    54
 Supercell
         9.450120      0.000000      0.000000
         0.000000      9.450120      0.000000
         0.000000      0.000000      9.450120
 AtomData:  id type       cartes_x      cartes_y      cartes_z           fx          fy          fz
             1    0       9.406120      0.013490      9.403540     0.787445    0.372966   -0.103479
             2    0       9.405140      9.438110      3.397000    -0.280766   -1.360845   -1.928067
             3    0       9.434940      0.064690      6.318590    -0.749539   -0.142570    0.681854
             4    0       0.181810      3.362510      9.290550    -1.634109   -2.314527    0.869748
             5    0       0.047520      2.830250      2.783560     0.720472    2.482708    2.465308
             6    0       0.112040      3.345240      6.179080    -2.050907   -2.611727    0.446115
             7    0       0.354430      6.372130      9.385340    -3.109724    1.414214   -0.307179
             8    0       0.062740      6.078620      2.883380    -0.847004    2.199864    2.880704
             9    0       9.423160      6.388310      6.472080    -0.682043    0.300101   -1.941149
            10    0       3.046670      9.169460      0.110820     2.031903    3.667290    0.051316
            11    0       3.285610      9.420330      3.208990    -0.850574   -1.907792   -0.607097
            12    0       3.118650      9.274380      6.268650     0.100990    1.354733    1.332933
            13    0       3.034860      3.257770      0.413220     2.193062   -0.702830   -4.850342
            14    0       3.298740      2.803910      3.006230    -1.599674    2.338383    2.666199
            15    0       3.329690      3.165790      6.265760    -3.930646    1.190679   -0.357562
            16    0       3.162310      6.350140      9.345240     0.865923   -1.119197    0.778220
            17    0       3.079960      6.255700      3.112270    -0.344752    0.264369    0.418328
            18    0       3.161800      6.152820      6.476090    -0.152717    0.711745   -1.329073
            19    0       6.420190      0.160690      0.212180    -1.655711   -1.946286   -2.428618
            20    0       6.043840      9.368250      3.646530     1.916886    0.459277   -3.602969
            21    0       6.136270      0.019850      6.356580     1.315833    0.281174    1.257973
            22    0       6.617780      3.161530      9.362230    -3.263730    2.724736   -1.101230
            23    0       6.388050      2.978430      2.886750     0.237106    1.238821    1.937125
            24    0       6.210250      2.957250      6.097800     1.750564    2.488519    0.830343
            25    0       6.232270      6.507900      9.418930     1.417813   -3.414404    1.216829
            26    0       5.928290      6.413150      3.359440     3.979077   -1.533687   -1.087044
            27    0       6.176800      6.325500      6.520130     1.155650   -0.939992   -2.204677
            28    0       1.764040      1.367310      1.733620    -2.036227    0.852593   -1.666850
            29    0       1.664160      1.353560      4.943760    -1.832502    1.918434   -1.817833
            30    0       1.660620      1.699760      8.030290    -0.804149   -0.590905   -0.745026
            31    0       1.739230      4.850540      1.399970    -1.773188    0.178169    3.053547
            32    0       1.448230      4.770720      4.854450     1.550907   -0.823743   -2.578151
            33    0       1.430310      4.768910      7.810350     3.420516    0.332243   -0.457721
            34    0       1.406560      8.076380      1.605510     1.075265   -2.350812    1.019572
            35    0       1.637870      7.642640      4.700610    -1.432665    1.486821    0.318390
            36    0       1.742040      8.131990      7.825230    -2.873431   -3.302244    0.531460
            37    0       4.844710      1.787940      1.285930    -0.020214   -2.553991    1.451463
            38    0       4.493330      1.514330      4.882720     2.882236   -0.195295   -1.295643
            39    0       4.328230      1.780460      7.854590     2.582367   -1.620671    1.997166
            40    0       4.855660      4.783200      1.725890     0.136156   -0.059615   -2.231319
            41    0       4.556190      4.521170      4.440270     1.352788    0.964616    1.952908
            42    0       4.745290      4.664920      7.833540     0.133029    0.152435    1.064268
            43    0       4.785470      7.752090      1.502640    -1.298651    2.234495    2.332813
            44    0       4.581680      7.762470      4.955870     0.209216   -0.572550   -0.630896
            45    0       4.921800      8.007780      8.094700    -2.998767    0.465681   -2.185719
            46    0       7.967910      1.659410      1.187030     1.329097   -0.707508    4.168906
            47    0       7.962010      1.608850      4.588560    -0.644546   -0.404058    1.036619
            48    0       7.673940      1.696250      7.766760     2.377610   -1.063100   -1.658498
            49    0       8.110750      4.965040      1.318590    -2.162567   -1.711496    1.070469
            50    0       7.826460      4.657270      4.598500    -0.219230    0.579823   -0.033612
            51    0       7.892150      4.861360      7.820730    -0.526548   -0.509538   -0.404605
            52    0       7.822950      7.763410      1.511540     0.690380    1.547005    1.644922
            53    0       7.674990      7.797290      4.887350     1.754619    0.234792   -0.754535
            54    0       7.791720      7.997100      7.988540     1.807674    0.022697   -1.166605
 Energy
       -567.502261260000
 PlusStress:  xx          yy          zz          yz          xz          xy
        70.35379    67.98568    71.90977     0.84133    -1.93474    -0.93372
 Feature   EFS_by	VASP
 Feature   mindist	2.277992
END_CFG

BEGIN_CFG
 Size
    54
 Supercell
         9.450120      0.000000      0.000000
         0.000000      9.450120      0.000000
         0.000000      0.000000      9.450120
 AtomData:  id type       cartes_x      cartes_y      cartes_z           fx          fy          fz
             1    0       0.034370      0.113820      0.005540    -0.508059   -1.204397   -0.157362
             2    0       9.444000      9.425650      3.245080     0.260812    0.238334   -0.939670
             3    0       9.385270      0.068790      6.339770     1.017192   -1.016201   -0.140803
             4    0       9.442480      3.185550      0.031980     0.371642   -0.066205   -0.234209