BEGIN_CFG
 Size
    28
 Supercell
         8.207930      0.000000     -0.000186
         0.000000      3.831060      0.000000
        -0.000191      0.000000      9.159140
 AtomData:  id type       cartes_x      cartes_y      cartes_z           fx          fy          fz
             1    0       0.028510      0.055280      0.254440    -0.370498   -0.473104    0.220465
             2    0       2.062220      1.955270      4.948850     0.129491   -0.097203   -0.217124
             3    0       4.066770      1.945350      1.882400     0.421732   -0.025733    0.530294
             4    0       6.235290      0.097180      6.456000    -0.433873   -0.313124    0.316872
             5    1       8.139250      3.782080      2.427590     2.080116    0.292082   -0.169177
             6    1       4.178070      3.796560      2.561630    -0.982705    0.625053    0.876727
             7    1       1.978510      1.937950      7.057790     1.109379    0.150746   -0.213099
             8    1       6.154140      1.936110      7.059530     0.381295    0.212364    0.951919
             9    1       0.144110      1.891390      4.842010    -0.538030    1.166198    0.181939
            10    1       4.021370      1.938390      4.775580     0.013545   -0.019017    0.911536
            11    1       1.991010      0.090580      0.321870     0.122977   -0.653233   -0.510676
            12    1       6.175080      3.819920      0.290970     0.611539    0.584392   -0.145960
            13    1       2.054720      3.821820      4.388030     0.272873    0.230237   -0.836844
            14    1       6.189840      3.789140      4.466590    -0.915940    0.164206    0.933459
            15    1       8.199960      1.829290      8.940740    -0.059226    1.103155   -0.729315
            16    1       4.164880      2.013870      9.087960    -0.884382   -0.354195    0.032651
            17    1       2.089570      1.970390      2.103340     0.182381   -0.271692   -0.546696
            18    1       6.020070      1.985330      2.053630     0.743598   -1.106121   -0.031105
            19    1       0.024210      0.034500      6.606360    -0.657077   -0.449965   -0.113822
            20    1       4.195190      0.050100      6.685810    -0.350942    0.080371   -0.306064
            21    2       8.106760      0.095720      4.463460     2.223096   -0.977286   -0.470993
            22    2       2.173380      1.986370      9.060620    -0.787609    0.138407   -0.342432
            23    2       3.947970      2.005670      7.123840     1.330391   -0.275707   -0.705030
            24    2       6.292070      0.026960      2.531160    -2.663460    0.328970   -1.527023
            25    2       4.177180      0.056560      4.574610    -0.710963   -0.172130   -1.686498
            26    2       6.101880      1.930450      9.081490     0.222329   -0.005872   -0.209054
            27    2       0.087150      1.923970      6.924690    -0.710332    0.136806    1.222768
            28    2       1.927060      0.052100      2.316780     0.220295   -0.018605    2.582284
 Energy
       -225.726686820000
 PlusStress:  xx          yy          zz          yz          xz          xy
        -6.47490    -5.04615   -12.56065    -0.27596     0.39665     0.17503
END_CFG

