BEGIN_CFG
 Size
    53
 Supercell
         9.450120      0.000000      0.000000
         0.000000      9.450120      0.000000
         0.000000      0.000000      9.450120
 AtomData:  id type       cartes_x      cartes_y      cartes_z           fx          fy          fz
             1    0       9.404510      9.404740      3.104700     0.584916    0.603462    1.081358
             2    0       9.398670      9.406060      6.298520     0.612348    0.526937    0.093802
             3    0       9.402530      3.095820      9.408990     0.615776    1.150416    0.544545
             4    0       9.406250      3.116330      3.123040     0.641888    0.420845    0.360372
             5    0       9.404980      3.114320      6.226510     0.685706    0.606634    1.044176
             6    0       9.398600      6.296100      9.405550     0.613095    0.139032    0.546875
             7    0       9.409620      6.221530      3.113600     0.635126    1.097574    0.619887
             8    0       9.408830      6.242150      6.242470     0.653839    0.805875    0.794973
             9    0       3.096550      9.408630      9.410650     1.218356    0.514104    0.507775
            10    0       3.116300      9.413100      3.124640     0.487788    0.542538    0.348229
            11    0       3.104260      9.413610      6.222390     0.744268    0.541715    1.124506
            12    0       3.113190      3.121350      9.414800     0.487423    0.389898    0.494572
            13    0       3.094920      3.105000      3.103670     0.607255    0.532923    0.532881
            14    0       3.092520      3.099760      6.260140     0.681420    0.625018    0.568782
            15    0       3.104420      6.222170      9.416590     0.731691    1.145971    0.527419
            16    0       3.095800      6.261600      3.101960     0.678074    0.546451    0.583377
            17    0       3.098370      6.258520      6.256210     0.754910    0.572315    0.590028
            18    0       6.291070      9.408740      9.406580     0.238429    0.519092    0.507902
            19    0       6.216710      9.413960      3.110060     1.223375    0.566907    0.663928
            20    0       6.229400      9.417900      6.239780     0.966725    0.500678    0.807168
            21    0       6.217230      3.107540      9.413260     1.214579    0.700599    0.540664
            22    0       6.245790      3.101600      3.102000     0.735123    0.606470    0.594720
            23    0       6.252990      3.102730      6.258250     0.600829    0.732988    0.539386
            24    0       6.228500      6.242890      9.423910     1.002241    0.782808    0.450995
            25    0       6.254740      6.256610      3.103520     0.606344    0.565446    0.716326
            26    0       6.258140      6.265900      6.268500     0.469761    0.376826    0.348255
            27    0       1.617650      1.597950      1.601220    -0.687380   -0.460468   -0.478464
            28    0       1.579920      1.574640      4.790430    -0.219949   -0.103546   -0.889527
            29    0       1.619560      1.606710      7.934050    -0.826050   -0.681499   -0.562198
            30    0       1.580770      4.791680      1.571320    -0.223521   -0.921287   -0.068467
            31    0       1.605120      4.769430      4.765510    -0.248462   -0.684732   -0.629840
            32    0       1.599360      4.788630      7.931310    -0.487286   -0.878342   -0.830866
            33    0       1.618800      7.935240      1.615370    -0.803599   -0.577030   -0.771287
            34    0       1.601230      7.934370      4.783330    -0.508349   -0.872486   -0.804736
            35    0       1.645750      7.922890      7.922550    -1.201581   -0.332039   -0.320025
            36    0       4.797850      1.582780      1.574500    -1.003106   -0.215287   -0.130773
            37    0       4.769190      1.597250      4.762980    -0.712045   -0.120241   -0.610507
            38    0       4.795920      1.599310      7.923870    -0.995590   -0.468703   -0.749869
            39    0       4.772210      4.768090      1.596000    -0.740366   -0.667473   -0.109728
            40    0       4.769380      4.765890      4.767070    -0.662804   -0.591187   -0.605798
            41    0       4.763230      4.761170      7.949570    -0.613574   -0.576020   -1.217873
            42    0       4.800110      7.934060      1.597780    -1.025632   -0.842315   -0.448764
            43    0       4.765410      7.948580      4.757480    -0.624049   -1.225013   -0.539248
            44    0       4.799620      7.911830      7.914430    -1.009169   -0.511250   -0.544611
            45    0       7.942510      1.609890      1.610440    -0.638309   -0.742779   -0.729962
            46    0       7.930330      1.597670      4.785840    -0.832569   -0.462705   -0.865213
            47    0       7.931130      1.643220      7.913450    -0.432645   -1.208961   -0.212192
            48    0       7.935640      4.787540      1.599990    -0.880205   -0.904376   -0.488943
            49    0       7.954570      4.758220      4.758640    -1.304521   -0.546126   -0.551837
            50    0       7.921190      4.791650      7.909350    -0.674439   -0.896182   -0.461471
            51    0       7.933910      7.920020      1.642030    -0.434634   -0.263214   -1.198243
            52    0       7.923080      7.908370      4.788650    -0.687793   -0.480919   -0.857553
            53    0       7.910320      7.903010      7.901240    -0.013659    0.120658    0.145093
 Energy
       -573.061922545132
 PlusStress:  xx          yy          zz          yz          xz          xy
        26.09434    27.07836    27.32395     1.70004     2.02198     2.03744
 Feature   EFS_by	VASP
 Feature   mindist	2.546341
END_CFG

BEGIN_CFG
 Size
    54
 Supercell
         9.450120      0.000000      0.000000
         0.000000      9.450120      0.000000
         0.000000      0.000000      9.450120
 AtomData:  id type       cartes_x      cartes_y      cartes_z           fx          fy          fz
             1    0       0.229970      8.692960      7.753470    -1.701272    2.588582   -1.049520
             2    0       1.064840      2.904270      1.108740    -3.541738    0.090029   -0.994900
             3    0       3.947580      7.666310      1.161140     0.950840   -1.278644   -0.445312
             4    0       4.089120      6.282640      8.175630    -1.094151    0.847416    2.914132
             5    0       8.172560      4.112150      8.497340     2.949333    0.559586   -2.799154
             6    0       7.347990      2.407830      4.720300    -0.080409    1.098917    3.083370
             7    0       1.373620      0.411180      1.256200    -0.573472   -1.720601    1.348782
             8    0       6.210010      4.427610      3.208880     1.642575   -1.170138    1.815079
             9    0       6.062100      7.858350      6.780430     3.662368   -4.374290    2.454082
            10    0       7.983050      8.235170      2.641860     1.424542    7.917563   -0.403260
            11    0       4.934200      1.672990      4.635490     2.283557   -0.452752    0.377456
            12    0       3.515880      2.491490      1.227400     0.832971    0.178705    0.177533
            13    0       5.946070      4.837070      6.088190    -1.135729   -0.300969    0.861653
            14    0       2.652480      1.881270      3.580670    -5.616901   -0.990018    0.706086
            15    0       1.399700      7.444440      1.370220    -4.539160    1.636722   -4.837556
            16    0       1.997280      7.177450      3.403670     2.755144   -0.574659    3.449512
            17    0       3.747120      7.249660      5.910340    -4.628801    2.653830    3.421576
            18    0       0.727200      3.021520      5.537010     1.507114   -0.587294    0.298089
            19    0       9.247520      1.081310      3.606900     1.455823   -0.652003   -0.832266
            20    0       0.152430      8.012100      4.840780     0.544971    2.570692    1.802518
            21    0       4.326850      4.904430      1.770370     2.268099    1.599708   -1.358275
            22    0       8.249270      0.835910      0.814440     0.616193    2.795439   -1.676490
            23    0       2.236870      5.310410      1.001770    -1.473737   -1.490059   -1.671313
            24    0       3.544860      2.079090      6.531580     0.583117    2.660684    0.973486
            25    0       6.638460      6.598770      1.980990    -8.322520    0.075476    1.310999
            26    0       3.644480      3.874770      3.969320     1.109092    2.626589    2.356927
            27    0       4.794120      3.873270      8.648860    -1.691938   -0.731181   -0.895692
            28    0       1.843150      3.636530      8.135550    -1.230278    0.450650    0.618869
            29    0       8.250300      4.833790      5.189510     0.735131   -3.598073    0.316491
            30    0       5.516010      1.428710      0.042250    -4.041562   -3.137991    0.170080
            31    0       0.676450      6.389950      8.326040     3.901541   -3.886775    2.764012
            32    0       1.650200      0.561660      6.143410     0.263103   -0.770997   -3.336326
            33    0       8.777290      3.544180      3.041620    -5.035600   -2.924003   -3.267536
            34    0       2.294610      1.030190      8.605120     0.597699    5.660733    1.472667
            35    0       7.228770      6.938190      4.556810    -2.156441   -1.566602    2.030313
            36    0       1.152200      5.736430      5.576980     2.466060   -0.207748   -0.047097
            37    0       4.623060      9.440780      7.440810     0.173326    2.562144   -1.406791
            38    0       8.358690      7.935260      0.077170     1.027445   -2.063969    0.762229
            39    0       5.506890      8.462830      4.457410    -0.793721    4.997615   -3.277628
            40    0       2.575530      8.384280      8.172110     1.211838   -5.278762    1.412330
            41    0       8.303770      5.483480      1.138150     6.084028   -3.655183   -3.242537
            42    0       6.748510      3.230560      0.839650     0.729619    3.706421    1.899427
            43    0       6.295200      1.446970      2.446800     0.158732   -2.324250    2.233892
            44    0       3.579880      9.431780      2.763870     1.855449   -2.684019   -0.491458
            45    0       6.775310      2.287240      7.671370    -2.940351   -0.603645   -3.723612
            46    0       7.538190      0.157570      5.701280     0.957334   -0.134579    0.826177
            47    0       4.330500      6.444650      4.068560     2.137584   -3.739343   -5.385405
            48    0       9.073650      1.736050      7.534440     1.554814   -0.028082    0.957400
            49    0       8.492770      6.461900      6.808370    -4.137277    1.952987    0.919719
            50    0       6.354930      5.878990      8.989090     0.248099    0.064368   -1.721467
            51    0       3.297810      4.701760      6.506220    -0.614665   -0.762091   -2.343200
            52    0       9.036980      6.236300      3.124730     3.078152   -1.825261    0.910658
            53    0       6.095710      8.410100      0.068960    -1.922167    1.766942    0.370814
            54    0       1.266390      4.303730      3.329810     5.506200    2.452186    0.190440
 Energy
       -530.940240704770
 PlusStress:  xx          yy          zz          yz          xz          xy
       170.70389   202.70600   161.46218    16.54429    -4.49167   -13.45254
 Feature   EFS_by	VASP
 Feature   mindist	2.092971
END_CFG

