BEGIN_CFG
 Size
    53
 Supercell
         9.450120      0.000000      0.000000
         0.000000      9.450120      0.000000
         0.000000      0.000000      9.450120
 AtomData:  id type       cartes_x      cartes_y      cartes_z           fx          fy          fz
             1    0       9.404510      9.404740      3.104700     0.555130    0.547988    0.472167
             2    0       9.398670      9.406060      6.298520     0.618690    0.545375    0.685353
             3    0       9.402530      3.095820      9.408990     0.578345    0.540191    0.501942
             4    0       9.406250      3.116330      3.123040     0.492616    0.173665    0.122803
             5    0       9.404980      3.114320      6.226510     0.538104    0.368129    1.254812
             6    0       9.398600      6.296100      9.405550     0.624396    0.718413    0.561704
             7    0       9.409620      6.221530      3.113600     0.494458    1.304962    0.385923
             8    0       9.408830      6.242150      6.242470     0.543407    0.994619    0.976196
             9    0       3.096550      9.408630      9.410650     0.591859    0.494768    0.476796
            10    0       3.116300      9.413100      3.124640     0.216322    0.453795    0.101702
            11    0       3.104260      9.413610      6.222390     0.490573    0.421703    1.328552
            12    0       3.113190      3.121350      9.414800     0.227992    0.137043    0.396510
            13    0       3.094920      3.105000      3.103670     0.454423    0.377101    0.381642
            14    0       3.092520      3.099760      6.260140     0.600703    0.533957    0.729713
            15    0       3.104420      6.222170      9.416590     0.473932    1.340150    0.392907
            16    0       3.095800      6.261600      3.101960     0.589040    0.711958    0.495368
            17    0       3.098370      6.258520      6.256210     0.730887    0.676247    0.707912
            18    0       6.291070      9.408740      9.406580     0.831464    0.508307    0.501970
            19    0       6.216710      9.413960      3.110060     1.442808    0.442331    0.437703
            20    0       6.229400      9.417900      6.239780     1.155809    0.410773    0.980404
            21    0       6.217230      3.107540      9.413260     1.411201    0.487256    0.419095
            22    0       6.245790      3.101600      3.102000     0.897242    0.530035    0.518682
            23    0       6.252990      3.102730      6.258250     0.704810    0.716158    0.642439
            24    0       6.228500      6.242890      9.423910     1.187939    0.947953    0.348965
            25    0       6.254740      6.256610      3.103520     0.725857    0.674426    0.719639
            26    0       6.258140      6.265900      6.268500     0.616058    0.512150    0.494762
            27    0       1.617650      1.597950      1.601220    -0.417630   -0.209631   -0.234661
            28    0       1.579920      1.574640      4.790430    -0.047000    0.077793   -0.961631
            29    0       1.619560      1.606710      7.934050    -0.557058   -0.420065   -0.596186
            30    0       1.580770      4.791680      1.571320    -0.033737   -0.999845    0.105717
            31    0       1.605120      4.769430      4.765510    -0.333346   -0.786315   -0.736750
            32    0       1.599360      4.788630      7.931310    -0.351061   -0.897537   -0.929369
            33    0       1.618800      7.935240      1.615370    -0.523980   -0.618929   -0.511016
            34    0       1.601230      7.934370      4.783330    -0.361677   -0.963783   -0.803181
            35    0       1.645750      7.922890      7.922550    -0.980146   -0.391534   -0.386037
            36    0       4.797850      1.582780      1.574500    -1.062339   -0.047312    0.024249
            37    0       4.769190      1.597250      4.762980    -0.831338   -0.201814   -0.715173
            38    0       4.795920      1.599310      7.923870    -0.997587   -0.347408   -0.838978
            39    0       4.772210      4.768090      1.596000    -0.855312   -0.749032   -0.184204
            40    0       4.769380      4.765890      4.767070    -0.687187   -0.622746   -0.640904
            41    0       4.763230      4.761170      7.949570    -0.687868   -0.643552   -1.162954
            42    0       4.800110      7.934060      1.597780    -1.034389   -0.933258   -0.327293
            43    0       4.765410      7.948580      4.757480    -0.706300   -1.175066   -0.602606
            44    0       4.799620      7.911830      7.914430    -0.995059   -0.580485   -0.624321
            45    0       7.942510      1.609890      1.610440    -0.655232   -0.478570   -0.476745
            46    0       7.930330      1.597670      4.785840    -0.919677   -0.335383   -0.867557
            47    0       7.931130      1.643220      7.913450    -0.457867   -0.987388   -0.280012
            48    0       7.935640      4.787540      1.599990    -0.974015   -0.901498   -0.363311
            49    0       7.954570      4.758220      4.758640    -1.259767   -0.619968   -0.611052
            50    0       7.921190      4.791650      7.909350    -0.755997   -0.876869   -0.544338
            51    0       7.933910      7.920020      1.642030    -0.467670   -0.336320   -0.978702
            52    0       7.923080      7.908370      4.788650    -0.765846   -0.560730   -0.839494
            53    0       7.910320      7.903010      7.901240    -0.074985    0.037791    0.050849
 Energy
       -573.727528560000
 PlusStress:  xx          yy          zz          yz          xz          xy
        12.64237    12.67817    12.77297     2.12678     2.38932     2.41351
 Feature   EFS_by	VASP
 Feature   mindist	2.546341
END_CFG

BEGIN_CFG
 Size
    54
 Supercell
         9.450120      0.000000      0.000000
         0.000000      9.450120      0.000000
         0.000000      0.000000      9.450120
 AtomData:  id type       cartes_x      cartes_y      cartes_z           fx          fy          fz
             1    0       0.229970      8.692960      7.753470    -2.256110    2.799625   -1.688842
             2    0       1.064840      2.904270      1.108740    -1.835445   -0.482266   -1.084979
             3    0       3.947580      7.666310      1.161140     0.592955   -0.763867   -0.577900
             4    0       4.089120      6.282640      8.175630    -1.005025    0.277641    2.899553
             5    0       8.172560      4.112150      8.497340     1.631955   -0.042245   -2.761622
             6    0       7.347990      2.407830      4.720300    -0.748622   -0.477379    2.329176
             7    0       1.373620      0.411180      1.256200    -1.195212    0.307291    1.731987
             8    0       6.210010      4.427610      3.208880     0.985139   -1.143075    2.015116
             9    0       6.062100      7.858350      6.780430     3.343577   -3.329430    2.469508
            10    0       7.983050      8.235170      2.641860     1.450895    8.859431   -0.577760
            11    0       4.934200      1.672990      4.635490     1.756094   -0.267702    0.587139
            12    0       3.515880      2.491490      1.227400     0.267627    0.730289   -0.015744
            13    0       5.946070      4.837070      6.088190    -1.343559   -0.772939    0.796408
            14    0       2.652480      1.881270      3.580670    -4.393648   -1.786906    1.248708
            15    0       1.399700      7.444440      1.370220    -3.170195    1.649181   -4.659660
            16    0       1.997280      7.177450      3.403670     2.911777    0.315103    3.773517
            17    0       3.747120      7.249660      5.910340    -4.576901    2.362252    3.255589
            18    0       0.727200      3.021520      5.537010     0.560938   -1.180477    0.889194
            19    0       9.247520      1.081310      3.606900     1.316060   -1.054111   -0.510414
            20    0       0.152430      8.012100      4.840780     1.012848    3.244582    1.532036
            21    0       4.326850      4.904430      1.770370     2.873489    1.127443   -1.715209
            22    0       8.249270      0.835910      0.814440     0.459944    1.780584   -0.945147
            23    0       2.236870      5.310410      1.001770    -1.239015   -1.894197   -2.216447
            24    0       3.544860      2.079090      6.531580     0.231360    2.245696   -0.004836
            25    0       6.638460      6.598770      1.980990    -9.473557    0.573144    1.102200
            26    0       3.644480      3.874770      3.969320     1.169614    1.656651    2.088269
            27    0       4.794120      3.873270      8.648860    -1.600109   -0.379546   -0.736722
            28    0       1.843150      3.636530      8.135550    -0.756983    0.758281    0.942554
            29    0       8.250300      4.833790      5.189510     0.724074   -3.938059    0.724623
            30    0       5.516010      1.428710      0.042250    -2.804420   -2.472322    0.097657
            31    0       0.676450      6.389950      8.326040     3.841674   -4.039976    1.975465
            32    0       1.650200      0.561660      6.143410     0.509279   -0.797788   -3.294462
            33    0       8.777290      3.544180      3.041620    -4.999996   -3.260657   -2.757751
            34    0       2.294610      1.030190      8.605120     0.585570    5.581369    0.691067
            35    0       7.228770      6.938190      4.556810    -3.314116   -1.805238    3.414859
            36    0       1.152200      5.736430      5.576980     1.907176    0.031422    0.883526
            37    0       4.623060      9.440780      7.440810    -0.025331    2.943382   -1.169315
            38    0       8.358690      7.935260      0.077170     0.467729   -0.739803    0.210984
            39    0       5.506890      8.462830      4.457410    -0.731101    5.518080   -2.888385
            40    0       2.575530      8.384280      8.172110     0.715620   -5.337494    1.189650
            41    0       8.303770      5.483480      1.138150     5.725617   -3.996877   -4.342782
            42    0       6.748510      3.230560      0.839650     0.998099    2.676387    1.691403
            43    0       6.295200      1.446970      2.446800     0.547754   -2.127857    2.239764
            44    0       3.579880      9.431780      2.763870     1.240065   -1.656612   -0.649665
            45    0       6.775310      2.287240      7.671370    -1.507686   -0.090490   -3.486089
            46    0       7.538190      0.157570      5.701280     1.233836    0.255389    0.447951
            47    0       4.330500      6.444650      4.068560     1.781646   -4.125168   -5.099497
            48    0       9.073650      1.736050      7.534440     1.691042    0.012916    0.309787
            49    0       8.492770      6.461900      6.808370    -3.192395    2.069424    1.398851
            50    0       6.354930      5.878990      8.989090    -0.183900    0.356162   -2.239780
            51    0       3.297810      4.701760      6.506220    -0.273335   -0.602226   -1.671037
            52    0       9.036980      6.236300      3.124730     4.667220   -1.893195    1.721718
            53    0       6.095710      8.410100      0.068960    -2.033422    0.717606    0.202125
            54    0       1.266390      4.303730      3.329810     5.459412    1.608567    0.233661
 Energy
       -530.274634690000
 PlusStress:  xx          yy          zz          yz          xz          xy
       169.74052   185.48556   157.66281     9.71482    -6.08902    -9.09224
 Feature   EFS_by	VASP
 Feature   mindist	2.092971
END_CFG

