BEGIN_CFG
 Size
    1
 SuperCell
         3.180500      0.000000      0.000000
         0.000000      3.180500      0.000000
         1.590250      1.590250      1.590250
 AtomData:    id    type
         1     0
 PlusStress:    xx    yy    zz    yz    xz    xy
         0.00570     0.00570     0.00570     0.00000     0.00000     0.00000
END_CFG
