BEGIN_CFG
 Size
    1
 SuperCell
         3.180500      0.000000      0.000000
         0.000000      3.180500      0.000000
         1.590250      1.590250      1.590250
 AtomData:    id    type    cartes_x  cartes_y  cartes_y
         1     0         0.000000      0.000000      0.000000
 PlusStress:    xx    yy    zz    yz    xz    xy
         0.00570     0.00570     0.00570     0.00000     0.00000     0.00000
END_CFG
