BEGIN_CFG
 Size
    4
 Supercell
         3.851065      0.000000      0.000000
         1.925532      3.335120      0.000000
         0.000000      0.000000      6.312347
 AtomData:  id type       cartes_x      cartes_y      cartes_z      charge
             1    0       3.851065      2.223410      0.000922      1.0000
             2    0       1.925530      1.111710      3.157100      1.0000
             3    1       3.851065      2.223410      2.366210     -1.0000
             4    1       1.925530      1.111710      5.522380     -1.0000
END_CFG

