BEGIN_CFG
 Size
    53
 Supercell
         9.450120      0.000000      0.000000
         0.000000      9.450120      0.000000
         0.000000      0.000000      9.450120
 AtomData:  id type       cartes_x      cartes_y      cartes_z           fx          fy          fz
             1    0       9.404510      9.404740      3.104700     0.555130    0.547988    0.472167
             2    0       9.398670      9.406060      6.298520     0.618690    0.545375    0.685353
             3    0       9.402530      3.095820      9.408990     0.578345    0.540191    0.501942
             4    0       9.406250      3.116330      3.123040     0.492616    0.173665    0.122803
             5    0       9.404980      3.114320      6.226510     0.538104    0.368129    1.254812
             6    0       9.398600      6.296100      9.405550     0.624396    0.718413    0.561704
             7    0       9.409620      6.221530      3.113600     0.494458    1.304962    0.385923
             8    0       9.408830      6.242150      6.242470     0.543407    0.994619    0.976196
             9    0       3.096550      9.408630      9.410650     0.591859    0.494768    0.476796
            10    0       3.116300      9.413100      3.124640     0.216322    0.453795    0.101702
            11    0       3.104260      9.413610      6.222390     0.490573    0.421703    1.328552
            12    0       3.113190      3.121350      9.414800     0.227992    0.137043    0.396510
            13    0       3.094920      3.105000      3.103670     0.454423    0.377101    0.381642
            14    0       3.092520      3.099760      6.260140     0.600703    0.533957    0.729713
            15    0       3.104420      6.222170      9.416590     0.473932    1.340150    0.392907
            16    0       3.095800      6.261600      3.101960     0.589040    0.711958    0.495368
            17    0       3.098370      6.258520      6.256210     0.730887    0.676247    0.707912
            18    0       6.291070      9.408740      9.406580     0.831464    0.508307    0.501970
            19    0       6.216710      9.413960      3.110060     1.442808    0.442331    0.437703
            20    0       6.229400      9.417900      6.239780     1.155809    0.410773    0.980404
            21    0       6.217230      3.107540      9.413260     1.411201    0.487256    0.419095
            22    0       6.245790      3.101600      3.102000     0.897242    0.530035    0.518682
            23    0       6.252990      3.102730      6.258250     0.704810    0.716158    0.642439
            24    0       6.228500      6.242890      9.423910     1.187939    0.947953    0.348965
            25    0       6.254740      6.256610      3.103520     0.725857    0.674426    0.719639
            26    0       6.258140      6.265900      6.268500     0.616058    0.512150    0.494762
            27    0       1.617650      1.597950      1.601220    -0.417630   -0.209631   -0.234661
            28    0       1.579920      1.574640      4.790430    -0.047000    0.077793   -0.961631
            29    0       1.619560      1.606710      7.934050    -0.557058   -0.420065   -0.596186
            30    0       1.580770      4.791680      1.571320    -0.033737   -0.999845    0.105717
            31    0       1.605120      4.769430      4.765510    -0.333346   -0.786315   -0.736750
            32    0       1.599360      4.788630      7.931310    -0.351061   -0.897537   -0.929369
            33    0       1.618800      7.935240      1.615370    -0.523980   -0.618929   -0.511016
            34    0       1.601230      7.934370      4.783330    -0.361677   -0.963783   -0.803181
            35    0       1.645750      7.922890      7.922550    -0.980146   -0.391534   -0.386037
            36    0       4.797850      1.582780      1.574500    -1.062339   -0.047312    0.024249
            37    0       4.769190      1.597250      4.762980    -0.831338   -0.201814   -0.715173
            38    0       4.795920      1.599310      7.923870    -0.997587   -0.347408   -0.838978
            39    0       4.772210      4.768090      1.596000    -0.855312   -0.749032   -0.184204
            40    0       4.769380      4.765890      4.767070    -0.687187   -0.622746   -0.640904
            41    0       4.763230      4.761170      7.949570    -0.687868   -0.643552   -1.162954
            42    0       4.800110      7.934060      1.597780    -1.034389   -0.933258   -0.327293
            43    0       4.765410      7.948580      4.757480    -0.706300   -1.175066   -0.602606
            44    0       4.799620      7.911830      7.914430    -0.995059   -0.580485   -0.624321
            45    0       7.942510      1.609890      1.610440    -0.655232   -0.478570   -0.476745
            46    0       7.930330      1.597670      4.785840    -0.919677   -0.335383   -0.867557
            47    0       7.931130      1.643220      7.913450    -0.457867   -0.987388   -0.280012
            48    0       7.935640      4.787540      1.599990    -0.974015   -0.901498   -0.363311
            49    0       7.954570      4.758220      4.758640    -1.259767   -0.619968   -0.611052
            50    0       7.921190      4.791650      7.909350    -0.755997   -0.876869   -0.544338
            51    0       7.933910      7.920020      1.642030    -0.467670   -0.336320   -0.978702
            52    0       7.923080      7.908370      4.788650    -0.765846   -0.560730   -0.839494
            53    0       7.910320      7.903010      7.901240    -0.074985    0.037791    0.050849
 Energy
       -573.727528560000
 PlusStress:  xx          yy          zz          yz          xz          xy
        12.64237    12.67817    12.77297     2.12678     2.38932     2.41351
 Feature   EFS_by	VASP
 Feature   mindist	2.546341
END_CFG

BEGIN_CFG
 Size
    53
 Supercell
         9.450120      0.000000      0.000000
         0.000000      9.450120      0.000000
         0.000000      0.000000      9.450120
 AtomData:  id type       cartes_x      cartes_y      cartes_z           fx          fy          fz
             1    0       0.072410      9.394100      3.026720    -0.975373    0.312093    0.772701
             2    0       9.403030      9.393310      6.313120     0.731972    0.729921   -0.296063
             3    0       0.010830      3.115700      0.000480     0.142078    0.310994    0.133203
             4    0       0.182660      3.057870      3.097550    -2.078251    0.710501    0.015850
             5    0       0.043550      3.136660      6.319230    -0.720574   -0.102551   -0.413200
             6    0       9.421680      6.360650      0.004960     0.361393    0.148259    0.025217
             7    0       0.046940      6.248640      3.170860    -0.578479    0.929880   -0.384290
             8    0       0.128550      6.179100      6.318150    -1.786410    1.990723   -0.252554
             9    0       3.051270      9.344180      9.386510     0.167546    1.166956    0.446549
            10    0       3.174990      9.417930      3.248860    -0.292535    0.353573   -1.270479
            11    0       3.217350      9.403210      6.272190    -1.257358    0.631828    0.464452
            12    0       3.213740      3.148250      0.006410    -1.497222   -0.261732    0.389652
            13    0       3.299400      3.178800      3.210870    -1.375228   -0.552053   -0.853555
            14    0       3.190460      3.168820      6.301980    -0.483389   -0.127196    0.112679
            15    0       3.191010      6.232170      0.102400    -0.959436    1.127935   -1.346318
            16    0       3.215910      6.237090      3.137520    -0.757117    1.104151    0.835979
            17    0       3.187200      6.199000      6.334020    -0.409311    1.348175   -0.264662
            18    0       6.268260      0.040170      9.385370    -0.092606   -0.702452    0.558003
            19    0       6.364290      9.428120      3.147450    -0.929676    0.018629   -0.415683
            20    0       6.381940      0.005510      6.316400    -1.154266    0.046181   -0.257197
            21    0       6.304990      3.108130      0.038670     0.036440    0.643221    0.192063
            22    0       6.380490      3.057680      3.169980    -0.035997    0.809887   -0.306938
            23    0       6.344280      3.167290      6.480390    -0.207667   -0.131332   -1.974966
            24    0       6.349490      6.272580      0.130910    -0.805517    0.512194   -1.474483
            25    0       6.384790      6.311220      3.281030    -0.689291   -0.012537   -1.852926
            26    0       6.297290      6.268050      6.278920     0.451232    0.761227    1.009636
            27    0       1.566360      1.437110      1.577400     0.063761    1.160246   -0.641514
            28    0       1.490300      1.692480      4.705790     1.277114   -1.488887    0.283482
            29    0       1.562260      1.712680      7.831990    -0.091536   -1.344822    0.290269
            30    0       1.491990      4.812260      1.609910     1.150949   -1.295653   -0.227906
            31    0       1.459510      4.730690      4.741230     2.498253   -0.193374   -0.178398
            32    0       1.539200      4.820190      7.967760     0.889106   -0.954399   -0.495251
            33    0       1.586240      7.916400      1.549950    -0.611275   -0.666875   -0.144426
            34    0       1.532510      7.932790      4.689070     0.768158   -0.774606    0.349452
            35    0       1.442340      7.904560      7.801560     0.783657    0.067686    0.823799
            36    0       4.588330      1.506900      1.488180     1.453657    0.605172    1.176997
            37    0       4.682160      1.603690      4.746320     0.894461   -0.131936   -0.015968
            38    0       4.625790      1.608400      7.887920     1.071856   -0.292117   -0.438142
            39    0       4.662040      4.772150      1.555700     1.304774   -1.219803    0.681260
            40    0       4.796310      4.785610      4.663850    -0.598628   -0.968336    1.177343
            41    0       4.659790      4.726360      7.935620     1.296862    0.307602   -0.510554
            42    0       4.627070      7.848800      1.570080     1.112333    0.413097    0.433009
            43    0       4.706480      7.933790      4.731700     0.483003   -0.744020    0.176224
            44    0       4.609890      7.948360      7.877380     1.058206   -1.222216   -0.189448
            45    0       7.866840      1.558050      1.453780     0.044488   -0.044070    0.800670
            46    0       7.842620      1.496100      4.661870     0.497343    1.069769    0.434336
            47    0       7.848670      1.655640      7.866510     0.320826   -0.778325    0.055476
            48    0       7.862940      4.781150      1.544100    -0.071128   -1.043354    0.435356
            49    0       7.895180      4.770650      4.691580    -0.088300   -1.209203    0.354302
            50    0       7.981820      4.783410      7.831330    -1.610637   -0.412746    0.817030
            51    0       7.768840      7.891780      1.538350     1.076341    0.219974    0.105735
            52    0       7.894170      7.897150      4.672110    -0.019382   -0.364581    0.669937
            53    0       7.811530      7.927060      7.855990     0.240783   -0.460697    0.184262
 Energy
       -572.270615780000
 PlusStress:  xx          yy          zz          yz          xz          xy
        14.98443    15.04206    15.36397    -1.69641     0.63584    -1.32729
 Feature   EFS_by	VASP
 Feature   mindist	2.482065
END_CFG

BEGIN_CFG
 Size
    53
 Supercell
         9.450120      0.000000      0.000000
         0.000000      9.450120      0.000000
         0.000000      0.000000      9.450120
 AtomData:  id type       cartes_x      cartes_y      cartes_z           fx          fy          fz
             1    0       0.034700      9.436300      3.083310    -0.291300   -0.077616    0.824495
             2    0       0.006750      0.005780      6.311720     0.050500   -0.201000    0.460607
             3    0       0.010640      3.101170      9.406470     0.043751    0.530241    0.448807
             4    0       0.001800      3.093950      3.094180     0.462039    0.679550    0.570125
             5    0       9.449370      3.131300      6.252600     0.375701    0.379851    0.646562
             6    0       0.009130      6.329100      9.425870    -0.062308    0.083808    0.279619
             7    0       9.444070      6.242320      3.126090     0.351274    0.688115    0.259459
             8    0       9.445650      6.266050      6.238160     0.562870    0.645473    1.185833
             9    0       3.086790      9.399040      9.394220    -0.010451    0.784439    0.719227
            10    0       3.145950      9.392370      3.094000    -0.113639    0.471448    0.511671
            11    0       3.197130      9.439470      6.248980    -0.790957   -0.163129    0.773290
            12    0       3.173440      3.140760      9.334800    -0.395978   -0.060238    1.264277
            13    0       3.254180      3.141770      3.103240    -1.203705    0.150907    0.434461
            14    0       3.177750      3.090150      6.243210    -0.254710    0.937523    0.621754
            15    0       3.215330      6.269300      9.424300    -1.075169    0.409310    0.078825
            16    0       3.177770      6.266870      3.087910    -0.352748    0.552711    0.679116
            17    0       3.242250      6.271730      6.236850    -1.254385    0.481845    1.006925
            18    0       6.311040      9.418980      9.393510    -0.371391    0.473865    0.632312
            19    0       6.346400      9.444730      3.095970    -0.847822   -0.457584    0.666185
            20    0       6.331580      9.445400      6.244710    -0.519928   -0.054771    0.906694
            21    0       6.352790      3.121420      9.397680    -0.873588    0.245857    0.460353
            22    0       6.397560      3.078220      3.112500    -1.343972    0.907058    0.382897
            23    0       6.373350      3.125190      6.253690    -1.156452    0.365321    0.861595
            24    0       6.339160      6.276020      9.409190    -0.613554    0.488926    0.524104
            25    0       6.380720      6.255500      3.100040    -1.225564    1.006726    0.614561
            26    0       6.362630      6.277260      6.283570    -0.893121    0.690377    0.595472
            27    0       1.571060      1.604510      1.637430    -0.165536   -0.297613   -0.770920
            28    0       1.585930      1.598540      4.807440    -0.256042   -0.220190   -1.121964
            29    0       1.519770      1.571710      7.898030     0.081557   -0.133713    0.081005
            30    0       1.563890      4.787410      1.567730    -0.047476   -1.054546    0.181388
            31    0       1.546870      4.751810      4.754600     0.366713   -0.488608   -0.577279
            32    0       1.577920      4.796920      7.922470    -0.048068   -0.927503   -0.860538
            33    0       1.505520      7.839240      1.577600     0.317206    0.603579   -0.020085
            34    0       1.562780      7.898710      4.811140     0.034363   -0.277212   -1.062913
            35    0       1.576440      7.882160      7.951780    -0.578912    0.098735   -0.777790
            36    0       4.664570      1.579000      1.639730     0.617103   -0.018339   -0.943494
            37    0       4.692850      1.567900      4.768000     0.691186    0.153482   -0.667178
            38    0       4.656630      1.554140      7.909270     0.803953    0.244616   -0.450611
            39    0       4.690380      4.770620      1.591030     0.767451   -0.775452   -0.147907
            40    0       4.766070      4.824330      4.812450    -0.182532   -1.536944   -1.401547
            41    0       4.717020      4.754730      7.929810     0.497687   -0.765020   -0.772251
            42    0       4.647120      7.919090      1.515000     0.924744   -0.525016    0.922809
            43    0       4.695170      7.916930      4.768460     0.657767   -0.324204   -0.986813
            44    0       4.660250      7.872410      7.927170     0.817765    0.048737   -0.971821
            45    0       7.788370      1.566190      1.644840     1.275606   -0.038976   -1.168149
            46    0       7.844010      1.590310      4.778500     0.745605   -0.383546   -0.750808
            47    0       7.849020      1.642870      7.890070     0.356734   -0.827670    0.067039
            48    0       7.821500      4.791300      1.584870     0.915817   -1.177584   -0.185701
            49    0       7.834060      4.751950      4.787240     1.038554   -0.639548   -1.054189
            50    0       7.873680      4.816420      7.907130     0.305290   -1.227404   -0.314380
            51    0       7.857790      7.902240      1.638050     0.233697   -0.064266   -0.569152
            52    0       7.864250      7.879560      4.857120     0.301486    0.139277   -1.646458
            53    0       7.777290      7.887400      7.954930     1.332886    0.455913   -0.439522
 Energy
       -573.731268140000
 PlusStress:  xx          yy          zz          yz          xz          xy
        12.49941    11.85740    11.60826     1.74720    -1.57738    -1.19445
 Feature   EFS_by	VASP
 Feature   mindist	2.524800
END_CFG

BEGIN_CFG
 Size
    54
 Supercell
         9.450120      0.000000      0.000000
         0.000000      9.450120      0.000000
         0.000000      0.000000      9.450120
 AtomData:  id type       cartes_x      cartes_y      cartes_z           fx          fy          fz
             1    0       8.906130      2.657820      3.828290     1.633935   -1.303227    3.866006
             2    0       6.915630      2.875420      7.106090    -1.028181    0.882210    0.630875
             3    0       5.961490      5.667400      2.705220    -0.453620   -1.465528   -0.263972
             4    0       4.920270      9.445390      2.304290     0.819120    0.597161    0.422556
             5    0       0.560220      7.801880      8.586400    -3.655913    4.198507    2.723893
             6    0       0.258520      5.390510      8.617170    -1.272074   -2.318551    0.802704
             7    0       4.908920      7.292250      0.959850    -0.064002   -2.162026   -0.004881
             8    0       1.292360      3.600880      1.541820    -7.258433    6.833356    5.129519
             9    0       6.891850      7.621020      3.580620    -2.284848    1.546101    0.267259
            10    0       7.095970      6.471820      8.295820    -0.031055    0.024951   -1.236460
            11    0       3.341550      7.728470      6.494510     1.046179    1.954015   -2.362976
            12    0       1.366550      1.286050      7.760990     4.710522   -3.528010    1.621582
            13    0       1.440750      4.694050      3.920280     0.710052    1.917930    1.314071
            14    0       3.048850      2.839070      2.736330     5.275570   -2.719809    0.496067
            15    0       2.537060      4.328720      9.011730     1.839108    3.522788   -3.102546
            16    0       3.959170      7.261860      3.457690     0.236724   -1.178902    1.694276
            17    0       5.576640      8.800660      8.537420    -4.833523   -1.250419    2.025455
            18    0       1.456410      3.572770      6.681820     2.343236    3.072398    0.022989
            19    0       0.865230      0.942100      2.625620    -0.119285    1.455480    4.781435
            20    0       1.609740      7.774350      2.315350    -2.421332   -7.530242    1.971127
            21    0       3.358460      5.144470      1.839710     1.239625    2.147599   -0.805805
            22    0       4.764550      1.456220      4.435550     2.600432    2.661072   -0.107060
            23    0       7.868390      3.838990      2.316520     3.311047   -2.604486    2.726822
            24    0       1.328060      6.584990      6.806470     2.245850   -4.282204   -4.266942
            25    0       9.179930      8.241040      3.784430     1.953524    2.458817   -0.691943
            26    0       5.373330      3.102280      2.046560     0.104353   -0.741528    2.471913
            27    0       6.925930      1.563070      0.449630    -1.578120    2.824475   -2.045723
            28    0       5.084620      3.709900      9.119850    -1.633435    0.617897    0.293365
            29    0       6.596150      3.671620      4.536880    -0.850080   -0.156557    1.617771
            30    0       4.261140      1.311170      0.186830     4.838921   -1.632791   -2.035482
            31    0       9.410970      2.806710      9.330360    -5.775467    1.361748   -4.006419
            32    0       7.422960      0.723280      4.949610    -0.192452    0.242199   -0.027840
            33    0       3.069580      9.243440      4.427840    -2.214739    0.226623   -0.610742
            34    0       5.725940      8.694550      6.137520    -0.264594   -2.555615   -4.627884
            35    0       8.677910      4.833410      6.309140    -1.464495   -1.119491    0.188298
            36    0       8.951430      5.969020      4.108990    -2.622402   -2.202440   -0.812973
            37    0       4.348400      1.095200      6.837290    -1.169650   -1.847028    0.873365
            38    0       7.424810      8.382180      0.680740    -0.297687   -5.860706   -0.422722
            39    0       3.956730      4.567590      4.618810     0.768026    0.637933    0.058304
            40    0       4.574850      6.025490      7.410950     0.387362   -1.845345    2.113709
            41    0       7.053320      4.545450      0.551440    -1.235768    1.818594   -7.918644
            42    0       5.996050      6.147410      5.426510     0.512482   -1.197251    1.038141
            43    0       7.431250      0.220550      7.737400     5.525335    2.445467   -1.027656
            44    0       2.135050      2.308160      4.637910    -2.037857   -2.221703    5.049988
            45    0       4.320290      3.318110      6.939680    -1.022817    2.573862   -2.757732
            46    0       9.181750      1.963860      6.566030    -4.308585    0.092525   -3.138482
            47    0       2.300080      2.042900      0.507810     0.093760   -0.664126   -4.496314
            48    0       7.487320      0.342490      2.386630    -0.210847    4.293121    5.042285
            49    0       0.660530      8.880240      6.035700     3.040732    3.793881   -1.144627
            50    0       8.352500      7.607930      6.300880    -4.161106   -2.492992   -0.279320
            51    0       2.831820      7.663500      8.962050     2.224091   -2.658097   -0.381112
            52    0       2.405580      9.287090      1.176380     3.776426    0.381143   -1.318467
            53    0       9.281920      0.465620      0.599630     1.194013   -0.706347   -2.754813
            54    0       8.673570      6.067920      1.199150     2.031943    3.663570    3.405761
 Energy
       -525.041003260000
 PlusStress:  xx          yy          zz          yz          xz          xy
       185.45132   181.65191   189.11741    -8.58998    -0.80029     0.69612
 Feature   EFS_by	VASP
 Feature   mindist	2.054020
END_CFG

BEGIN_CFG
 Size
    54
 Supercell
         9.450120      0.000000      0.000000
         0.000000      9.450120      0.000000
         0.000000      0.000000      9.450120
 AtomData:  id type       cartes_x      cartes_y      cartes_z           fx          fy          fz
             1    0       0.843490      1.747830      5.119910     0.063673    2.175261   -0.424761
             2    0       5.182990      4.366160      7.402190     0.877121   -1.287764   -0.213446
             3    0       4.628790      7.102520      1.173490     1.945293    1.183495    1.928780
             4    0       6.715220      0.115160      1.481240     0.255541   -0.835414    1.809589
             5    0       1.530160      8.862890      7.401470     2.128581   -1.346329    0.094503
             6    0       8.704420      6.488570      8.367520    -0.070104    1.424863    1.912317
             7    0       2.166310      7.964210      0.842740     1.760019    2.096395   -2.172141
             8    0       0.513450      3.115990      3.053110    -3.466674   -2.018611    0.440814
             9    0       6.666840      9.339950      5.392920    -3.337809   -1.516076    0.586379
            10    0       8.180540      7.348500      5.723020    -3.879310    0.913095    5.900508
            11    0       4.250570      8.454120      5.958840     0.887350   -2.292753    1.073831
            12    0       1.890070      0.919790      9.123270     3.096239    2.719422    0.648952
            13    0       5.826410      6.474810      5.238570     1.467257   -0.653565    0.941773
            14    0       2.742200      1.309840      2.881780     0.603245    1.292107   -0.015897
            15    0       1.506700      5.916160      9.261140     0.271389   -0.832315    0.391187
            16    0       3.529960      6.512120      4.598620    -2.739861    0.673950   -1.660924
            17    0       4.172630      7.868610      8.568330    -0.472910   -0.308726   -2.093637
            18    0       1.788150      4.159370      7.403750    -2.052706   -0.537859    0.834045
            19    0       0.998490      0.595300      2.017010    -6.354655   -2.706304   -0.454541
            20    0       1.749260      7.048300      2.809130    -2.104863   -0.643122    2.491381
            21    0       3.070270      5.260180      1.813610     1.020561   -0.931213   -2.240991
            22    0       5.612630      1.936500      4.787710    -1.919914   -1.930724   -3.711446
            23    0       7.012700      2.981760      1.912450     0.339720   -0.856791    4.310764
            24    0       2.351970      4.330090      3.740330    -0.310665   -1.455630    4.410083
            25    0       7.950630      7.767000      3.584190    -1.666484   -0.966572   -7.284989
            26    0       4.400270      2.565100      2.405450     4.378619    2.434132   -2.809052
            27    0       5.930400      2.154160      9.283770    -1.751944    0.962353   -0.813901
            28    0       3.531010      3.584600      0.042960    -0.263966   -1.672836   -1.658651
            29    0       7.710110      4.015680      4.642920    -2.333013   -2.285111   -1.395265
            30    0       4.294170      0.405950      0.709110    -0.052800    0.900142    0.859322
            31    0       8.075580      4.077450      9.112270    -2.007110    1.961109   -1.745786
            32    0       0.811450      8.354460      4.633540     1.037686    2.454853    0.407560
            33    0       4.742550      8.771100      3.367130     1.302551   -0.237399   -1.462035
            34    0       6.794990      9.249490      8.401150    -0.630399   -2.266243    0.806553
            35    0       8.508140      4.527480      6.699770    -0.398471   -1.126092    0.162683
            36    0       9.370550      5.794290      4.462730     4.388590   -4.004916   -3.051381
            37    0       4.456710      0.711090      7.527710    -0.475303    3.543061    0.128368
            38    0       7.416190      6.850680      0.979860    -0.868061    1.471161   -0.465294
            39    0       4.870320      4.101330      4.275070     0.450001    1.863117    1.185670
            40    0       6.436500      6.428000      7.693290    -2.584112    1.319237    1.737672
            41    0       5.733190      4.747000      0.741890    -1.059307    0.099865   -1.665037
            42    0       5.950600      5.931210      2.923350     0.806690   -0.649919    0.231462
            43    0       6.619400      2.170320      6.727850     3.142582    2.323066    3.586431
            44    0       2.757730      0.441180      4.973720     1.096332    0.126019    3.041021
            45    0       3.403220      3.094740      6.239010     0.403984   -2.278974   -1.552029
            46    0       0.312360      1.957720      7.519150     1.486395    6.354182    1.579106
            47    0       0.649560      3.344370      0.638440     6.539955    2.481461   -0.157521
            48    0       8.293400      0.629540      3.854080     0.224318    4.362708   -1.933563
            49    0       0.759070      6.636990      6.650870     5.572530   -1.559763   -1.796841
            50    0       8.682590      0.339860      6.763120    -1.918493   -4.297011   -1.615641
            51    0       3.318180      6.108410      7.016720    -0.026844   -0.617155    0.926061
            52    0       9.279070      8.641220      0.038270    -1.338586   -0.038651    0.399391
            53    0       8.573940      1.800600      0.303000    -2.069082   -5.710965    0.222414
            54    0       8.612210      5.008470      2.145630     0.607224    2.729748   -0.653849
 Energy
       -530.598002830000
 PlusStress:  xx          yy          zz          yz          xz          xy
       158.69493   164.23833   182.81208     4.42638    13.08618    21.11677
 Feature   EFS_by	VASP
 Feature   mindist	2.073383
END_CFG

BEGIN_CFG
 Size
    54
 Supercell
         9.450120      0.000000      0.000000
         0.000000      9.450120      0.000000
         0.000000      0.000000      9.450120
 AtomData:  id type       cartes_x      cartes_y      cartes_z           fx          fy          fz
             1    0       0.229970      8.692960      7.753470    -2.256110    2.799625   -1.688842
             2    0       1.064840      2.904270      1.108740    -1.835445   -0.482266   -1.084979
             3    0       3.947580      7.666310      1.161140     0.592955   -0.763867   -0.577900
             4    0       4.089120      6.282640      8.175630    -1.005025    0.277641    2.899553