 vasp.5.4.1 24Jun15 (build Apr 15 2016 23:17:53) complex                        
  
 executed on           IFC91_ompi date 2017.05.17  16:43:50
 running on   16 total cores
 distrk:  each k-point on   16 cores,    1 groups
 distr:  one band on NCORES_PER_BAND=  16 cores,    1 groups


--------------------------------------------------------------------------------------------------------


 INCAR:
 POTCAR:    PAW_PBE Li 17Jan2003                  
 POTCAR:   PAW_PBE Ti 08Apr2002                   
 POTCAR:   PAW_PBE O 08Apr2002                    

 ----------------------------------------------------------------------------- 
|                                                                             |
|           W    W    AA    RRRRR   N    N  II  N    N   GGGG   !!!           |
|           W    W   A  A   R    R  NN   N  II  NN   N  G    G  !!!           |
|           W    W  A    A  R    R  N N  N  II  N N  N  G       !!!           |
|           W WW W  AAAAAA  RRRRR   N  N N  II  N  N N  G  GGG   !            |
|           WW  WW  A    A  R   R   N   NN  II  N   NN  G    G                |
|           W    W  A    A  R    R  N    N  II  N    N   GGGG   !!!           |
|                                                                             |
|      For optimal performance we recommend to set                            |
|        NCORE= 4 - approx SQRT( number of cores)                             |
|      NCORE specifies how many cores store one orbital (NPAR=cpu/NCORE).     |
|      This setting can  greatly improve the performance of VASP for DFT.     |
|      The default, NPAR=number of cores might be grossly inefficient         |
|      on modern multi-core architectures or massively parallel machines.     |
|      Do your own testing !!!!                                               |
|      Unfortunately you need to use the default for GW and RPA calculations. |
|      (for HF NCORE is supported but not extensively tested yet)             |
|                                                                             |
 ----------------------------------------------------------------------------- 

 POTCAR:    PAW_PBE Li 17Jan2003                  
   VRHFIN =Li: s1p0                                                             
   LEXCH  = PE                                                                  
   EATOM  =     5.3001 eV,     .3895 Ry                                         
                                                                                
   TITEL  = PAW_PBE Li 17Jan2003                                                
   LULTRA =        F    use ultrasoft PP ?                                      
   IUNSCR =        1    unscreen: 0-lin 1-nonlin 2-no                           
   RPACOR =    1.500    partial core radius                                     
   POMASS =    7.010; ZVAL   =    1.000    mass and valenz                      
   RCORE  =    2.050    outmost cutoff radius                                   
   RWIGS  =    2.600; RWIGS  =    1.376    wigner-seitz radius (au A)           
   ENMAX  =  140.000; ENMIN  =  100.000 eV                                      
   ICORE  =        2    local potential                                         
   LCOR   =        T    correct aug charges                                     
   LPAW   =        T    paw PP                                                  
   EAUG   =  331.638                                                            
   DEXC   =    -.010                                                            
   RMAX   =    4.263    core radius for proj-oper                               
   RAUG   =    1.300    factor for augmentation sphere                          
   RDEP   =    2.094    radius for radial grids                                 
   QCUT   =   -2.932; QGAM   =    5.865    optimization parameters              
                                                                                
   Description                                                                  
     l     E      TYP  RCUT    TYP  RCUT                                        
     0   .000     23  2.050                                                     
     0  2.000     23  2.050                                                     
     1   .000     23  2.050                                                     
     2   .000     23  2.050                                                     
  local pseudopotential read in
  partial core-charges read in
  atomic valenz-charges read in
  non local Contribution for L=           0  read in
    real space projection operators read in
  non local Contribution for L=           0  read in
    real space projection operators read in
  non local Contribution for L=           1  read in
    real space projection operators read in
    PAW grid and wavefunctions read in
 
   number of l-projection  operators is LMAX  =           3
   number of lm-projection operators is LMMAX =           5
 
 POTCAR:   PAW_PBE Ti 08Apr2002                   
   VRHFIN =Ti: d3 s1                                                            
   LEXCH  = PE                                                                  
   EATOM  =    94.7929 eV,    6.9671 Ry                                         
                                                                                
   TITEL  = PAW_PBE Ti 08Apr2002                                                
   LULTRA =        F    use ultrasoft PP ?                                      
   IUNSCR =        1    unscreen: 0-lin 1-nonlin 2-no                           
   RPACOR =    2.200    partial core radius                                     
   POMASS =   47.880; ZVAL   =    4.000    mass and valenz                      
   RCORE  =    2.800    outmost cutoff radius                                   
   RWIGS  =    2.500; RWIGS  =    1.323    wigner-seitz radius (au A)           
   ENMAX  =  178.330; ENMIN  =  133.747 eV                                      
   RCLOC  =    2.215    cutoff for local pot                                    
   LCOR   =        T    correct aug charges                                     
   LPAW   =        T    paw PP                                                  
   EAUG   =  328.883                                                            
   DEXC   =    -.043                                                            
   RMAX   =    3.453    core radius for proj-oper                               
   RAUG   =    1.300    factor for augmentation sphere                          
   RDEP   =    2.885    radius for radial grids                                 
   QCUT   =   -3.620; QGAM   =    7.241    optimization parameters              
                                                                                
   Description                                                                  
     l     E      TYP  RCUT    TYP  RCUT                                        
     2   .000     23  2.800                                                     
     2   .000     23  2.800                                                     
     0   .000     23  2.800                                                     
     0  1.500     23  2.800                                                     
     1  -.400     23  2.800                                                     
     3   .000      7   .000                                                     
  local pseudopotential read in
  partial core-charges read in
  atomic valenz-charges read in
  non local Contribution for L=           2  read in
    real space projection operators read in
  non local Contribution for L=           2  read in
    real space projection operators read in
  non local Contribution for L=           0  read in
    real space projection operators read in
  non local Contribution for L=           0  read in
    real space projection operators read in
  non local Contribution for L=           1  read in
    real space projection operators read in
    PAW grid and wavefunctions read in
 
   number of l-projection  operators is LMAX  =           5
   number of lm-projection operators is LMMAX =          15
 
 POTCAR:   PAW_PBE O 08Apr2002                    
   VRHFIN =O: s2p4                                                              
   LEXCH  = PE                                                                  
   EATOM  =   432.3788 eV,   31.7789 Ry                                         
                                                                                
   TITEL  = PAW_PBE O 08Apr2002                                                 
   LULTRA =        F    use ultrasoft PP ?                                      
   IUNSCR =        0    unscreen: 0-lin 1-nonlin 2-no                           
   RPACOR =     .000    partial core radius                                     
   POMASS =   16.000; ZVAL   =    6.000    mass and valenz                      
   RCORE  =    1.520    outmost cutoff radius                                   
   RWIGS  =    1.550; RWIGS  =     .820    wigner-seitz radius (au A)           
   ENMAX  =  400.000; ENMIN  =  300.000 eV                                      
   ICORE  =        2    local potential                                         
   LCOR   =        T    correct aug charges                                     
   LPAW   =        T    paw PP                                                  
   EAUG   =  605.392                                                            
   DEXC   =     .000                                                            
   RMAX   =    2.264    core radius for proj-oper                               
   RAUG   =    1.300    factor for augmentation sphere                          
   RDEP   =    1.550    radius for radial grids                                 
   QCUT   =   -5.520; QGAM   =   11.041    optimization parameters              
                                                                                
   Description                                                                  
     l     E      TYP  RCUT    TYP  RCUT                                        
     0   .000     23  1.200                                                     
     0  -.700     23  1.200                                                     
     1   .000     23  1.520                                                     
     1   .600     23  1.520                                                     
     2   .000      7  1.500                                                     
  local pseudopotential read in
  atomic valenz-charges read in
  non local Contribution for L=           0  read in
    real space projection operators read in
  non local Contribution for L=           0  read in
    real space projection operators read in
  non local Contribution for L=           1  read in
    real space projection operators read in
  non local Contribution for L=           1  read in
    real space projection operators read in
    PAW grid and wavefunctions read in
 
   number of l-projection  operators is LMAX  =           4
   number of lm-projection operators is LMMAX =           8
 
 Optimization of the real space projectors (new method)

 maximal supplied QI-value         = 18.33
 optimisation between [QCUT,QGAM] = [ 10.08, 20.35] = [ 28.46,115.93] Ry 
 Optimized for a Real-space Cutoff    1.30 Angstroem

   l    n(q)    QCUT    max X(q) W(low)/X(q) W(high)/X(q)  e(spline) 
   0      8    10.082    30.666    0.15E-04    0.15E-05    0.57E-08
   0      8    10.082    39.284    0.11E-03    0.57E-04    0.35E-07
   1      7    10.082     4.214    0.54E-04    0.21E-03    0.44E-07
 Optimization of the real space projectors (new method)

 maximal supplied QI-value         = 13.42
 optimisation between [QCUT,QGAM] = [ 10.20, 20.39] = [ 29.12,116.47] Ry 
 Optimized for a Real-space Cutoff    1.65 Angstroem

   l    n(q)    QCUT    max X(q) W(low)/X(q) W(high)/X(q)  e(spline) 
   2      9    10.197     5.474    0.33E-04    0.17E-04    0.58E-07
   2      9    10.197    20.898    0.12E-03    0.17E-03    0.37E-06
   0     10    10.197    23.292    0.17E-04    0.30E-05    0.16E-07
   0     10    10.197    27.738    0.13E-03    0.39E-04    0.99E-07
   1     10    10.197     9.492    0.17E-04    0.41E-04    0.48E-07
 Optimization of the real space projectors (new method)

 maximal supplied QI-value         = 24.76
 optimisation between [QCUT,QGAM] = [ 10.15, 20.30] = [ 28.85,115.39] Ry 
 Optimized for a Real-space Cutoff    1.51 Angstroem

   l    n(q)    QCUT    max X(q) W(low)/X(q) W(high)/X(q)  e(spline) 
   0      9    10.150     4.192    0.32E-04    0.13E-04    0.13E-06
   0      9    10.150     8.473    0.18E-03    0.20E-03    0.43E-06
   1      9    10.150     2.474    0.32E-04    0.33E-04    0.64E-07
   1      9    10.150     3.912    0.13E-03    0.16E-03    0.33E-06
  PAW_PBE Li 17Jan2003                  :
 energy of atom  1       EATOM=   -5.3001
 kinetic energy error for atom=    0.0000 (will be added to EATOM!!)
 PAW_PBE Ti 08Apr2002                   :
 energy of atom  2       EATOM=  -94.7929
 kinetic energy error for atom=    0.0005 (will be added to EATOM!!)
 PAW_PBE O 08Apr2002                    :
 energy of atom  3       EATOM= -432.3788
 kinetic energy error for atom=    0.1156 (will be added to EATOM!!)
 
 
 POSCAR: MLIP output to VASP                     
  positions in cartesian coordinates
  No initial velocities read in
 exchange correlation table for  LEXCH =        8
   RHO(1)=    0.500       N(1)  =     2000
   RHO(2)=  100.500       N(2)  =     4000
 


--------------------------------------------------------------------------------------------------------


 ion  position               nearest neighbor table
   1  0.500  0.005  0.044-  40 1.91  24 1.91  34 1.96  42 2.00  38 2.22  13 2.79   5 2.79  12 2.80
                             4 2.80  16 2.82   8 2.82
   2  0.000  1.000  0.504-  19 1.95  28 1.96  20 1.97  21 1.98  37 1.98  22 2.01   3 2.99   7 3.00
                             5 3.01  13 3.01
   3  0.000  0.251  0.747-  27 1.96  20 1.96  19 1.97  25 1.97  41 1.97  18 2.01   2 2.99   6 3.02
                             4 3.03  12 3.03
   4  0.246  0.257  0.999-  32 1.93  18 1.93  25 1.97  23 1.98  34 2.00  24 2.01   1 2.80   9 3.02
                             3 3.03  11 3.07   5 3.11
   5  0.245  1.000  0.254-  22 1.93  21 1.95  31 1.97  38 1.99  23 1.99  24 2.01   1 2.79   2 3.01
                            10 3.03   8 3.07   4 3.11
   6  0.000  0.501  0.499-  29 1.97  45 1.97  28 1.97  20 1.97  30 1.97  27 1.99   9 3.01  17 3.01
                             7 3.02   3 3.02
   7  0.000  0.748  0.748-  27 1.95  28 1.97  33 1.97  49 1.97  19 1.98  26 2.00   2 3.00   6 3.02
                            16 3.03   8 3.03
   8  0.246  0.749  0.000-  26 1.93  32 1.95  33 1.97  31 1.98  24 1.99  42 2.00   1 2.82   7 3.03
                             9 3.05  15 3.07   5 3.07
   9  0.250  0.500  0.253-  23 1.96  29 1.96  46 1.96  30 1.96  31 1.98  32 2.02   6 3.01  14 3.01
                             4 3.02   8 3.05
  10  0.500  0.001  0.500-  37 1.96  21 1.96  36 1.97  35 1.97  44 1.97  38 2.04  13 3.03   5 3.03
                            11 3.03  15 3.03
  11  0.500  0.253  0.748-  43 1.95  36 1.96  41 1.97  25 1.97  35 1.98  34 2.02  14 3.02  10 3.03
                            12 3.07   4 3.07
  12  0.754  0.257  0.999-  48 1.93  18 1.93  41 1.97  39 1.98  34 2.00  40 2.01   1 2.80  17 3.02
                             3 3.03  11 3.07  13 3.11
  13  0.755  1.000  0.254-  22 1.93  37 1.95  47 1.97  38 1.99  39 1.99  40 2.01   1 2.79   2 3.01
                            10 3.03  16 3.07  12 3.11
  14  0.500  0.502  0.500-  44 1.96  45 1.97  29 1.97  36 1.97  46 1.97  43 2.00  17 3.01   9 3.01
                            11 3.02  15 3.02
  15  0.500  0.751  0.749-  43 1.96  44 1.97  35 1.97  49 1.97  33 1.97  42 2.02  14 3.02  10 3.03
                            16 3.07   8 3.07
  16  0.754  0.749  0.000-  26 1.93  48 1.95  49 1.97  47 1.98  40 1.99  42 2.00   1 2.82   7 3.03
                            17 3.05  15 3.07  13 3.07
  17  0.750  0.500  0.253-  39 1.96  45 1.96  46 1.96  30 1.96  47 1.98  48 2.02   6 3.01  14 3.01
                            12 3.02  16 3.05
  18  0.000  0.251  0.962-   4 1.93  12 1.93   3 2.01
  19  0.000  0.000  0.712-   2 1.95   3 1.97   7 1.98
  20  0.000  0.250  0.538-   3 1.96   2 1.97   6 1.97
  21  0.250  0.001  0.463-   5 1.95  10 1.96   2 1.98
  22  0.000  0.002  0.290-   5 1.93  13 1.93   2 2.01
  23  0.249  0.252  0.211-   9 1.96   4 1.98   5 1.99
  24  0.253  0.002  0.040-   1 1.91   8 1.99   5 2.01   4 2.01
  25  0.250  0.251  0.788-  11 1.97   3 1.97   4 1.97
  26  0.000  0.754  0.962-  16 1.93   8 1.93   7 2.00
  27  0.000  0.500  0.712-   7 1.95   3 1.96   6 1.99
  28  0.000  0.750  0.538-   2 1.96   7 1.97   6 1.97
  29  0.250  0.501  0.462-   9 1.96   6 1.97  14 1.97
  30  0.000  0.501  0.289-   9 1.96  17 1.96   6 1.97
  31  0.248  0.751  0.212-   5 1.97   9 1.98   8 1.98
  32  0.252  0.502  0.037-   4 1.93   8 1.95   9 2.02
  33  0.250  0.749  0.789-  15 1.97   7 1.97   8 1.97
  34  0.500  0.239  0.964-   1 1.96  12 2.00   4 2.00  11 2.02
  35  0.500  0.001  0.710-  10 1.97  15 1.97  11 1.98
  36  0.500  0.251  0.538-  11 1.96  10 1.97  14 1.97
  37  0.750  0.001  0.463-  13 1.95  10 1.96   2 1.98
  38  0.500  0.001  0.281-  13 1.99   5 1.99  10 2.04   1 2.22
  39  0.751  0.252  0.211-  17 1.96  12 1.98  13 1.99
  40  0.747  0.002  0.040-   1 1.91  16 1.99  13 2.01  12 2.01
  41  0.750  0.251  0.788-  11 1.97   3 1.97  12 1.97
  42  0.500  0.766  0.964-   1 2.00  16 2.00   8 2.00  15 2.02
  43  0.500  0.501  0.713-  11 1.95  15 1.96  14 2.00
  44  0.500  0.751  0.538-  14 1.96  15 1.97  10 1.97
  45  0.750  0.501  0.462-  17 1.96   6 1.97  14 1.97
  46  0.500  0.501  0.289-  17 1.96   9 1.96  14 1.97
  47  0.752  0.751  0.212-  13 1.97  17 1.98  16 1.98
  48  0.748  0.502  0.037-  12 1.93  16 1.95  17 2.02
  49  0.750  0.749  0.789-  15 1.97   7 1.97  16 1.97
 
  LATTYP: Found a simple tetragonal cell.
 ALAT       =     7.7391700000
 C/A-ratio  =     1.2088608985
  
  Lattice vectors:
  
 A1 = (   7.7391700000,   0.0000000000,   0.0000000000)
 A2 = (   0.0000000000,   7.7391700000,   0.0000000000)
 A3 = (   0.0000000000,   0.0000000000,   9.3555800000)


Analysis of symmetry for initial positions (statically):
=====================================================================
 Subroutine PRICEL returns:
 Original cell was already a primitive cell.
 

 Routine SETGRP: Setting up the symmetry group for a 
 simple tetragonal supercell.


 Subroutine GETGRP returns: Found  2 space group operations
 (whereof  2 operations were pure point group operations)
 out of a pool of 16 trial point group operations.


The static configuration has the point symmetry C_1h.


Analysis of symmetry for dynamics (positions and initial velocities):
=====================================================================
 Subroutine PRICEL returns:
 Original cell was already a primitive cell.
 

 Routine SETGRP: Setting up the symmetry group for a 
 simple tetragonal supercell.


 Subroutine GETGRP returns: Found  2 space group operations
 (whereof  2 operations were pure point group operations)
 out of a pool of 16 trial point group operations.


The dynamic configuration has the point symmetry C_1h.


Analysis of magnetic symmetry:
=====================================================================
 Subroutine PRICEL returns:
 Original cell was already a primitive cell.
 

 Subroutine MAGSYM returns: Found  2 space group operations
 (whereof  2 operations were pure point group operations)
 out of a pool of  2 trial space group operations
 (whereof  2 operations were pure point group operations)
 and found also     1 'primitive' translations


The magnetic configuration has the point symmetry C_1h.
 
 
 KPOINTS: Automatic Mesh                          

Automatic generation of k-mesh.
Space group operators:
 irot       det(A)        alpha          n_x          n_y          n_z        tau_x        tau_y        tau_z
    1     1.000000     0.000000     1.000000     0.000000     0.000000     0.000000     0.000000     0.000000
    2    -1.000000   180.000000     1.000000     0.000000     0.000000     0.000000     0.000000     0.000000
 
 Subroutine IBZKPT returns following result:
 ===========================================
 
 Found     10 irreducible k-points:
 
 Following reciprocal coordinates:
            Coordinates               Weight
  0.000000  0.000000  0.000000      1.000000
  0.333333  0.000000  0.000000      2.000000
  0.000000  0.333333  0.000000      2.000000
  0.333333  0.333333  0.000000      4.000000
  0.000000  0.000000  0.333333      2.000000
  0.333333  0.000000  0.333333      4.000000
  0.000000  0.333333  0.333333      2.000000
  0.333333  0.333333  0.333333      4.000000
  0.000000 -0.333333  0.333333      2.000000
  0.333333 -0.333333  0.333333      4.000000
 
 Following cartesian coordinates:
            Coordinates               Weight
  0.000000  0.000000  0.000000      1.000000
  0.043071  0.000000  0.000000      2.000000
  0.000000  0.043071  0.000000      2.000000
  0.043071  0.043071  0.000000      4.000000
  0.000000  0.000000  0.035629      2.000000
  0.043071  0.000000  0.035629      4.000000
  0.000000  0.043071  0.035629      2.000000
  0.043071  0.043071  0.035629      4.000000
  0.000000 -0.043071  0.035629      2.000000
  0.043071 -0.043071  0.035629      4.000000
 


--------------------------------------------------------------------------------------------------------




 Dimension of arrays:
   k-points           NKPTS =     10   k-points in BZ     NKDIM =     10   number of bands    NBANDS=    169
   number of dos      NEDOS =    301   number of ions     NIONS =     49
   non local maximal  LDIM  =      5   non local SUM 2l+1 LMDIM =     15
   total plane-waves  NPLWV = 160000
   max r-space proj   IRMAX =   5407   max aug-charges    IRDMAX=  19918
   dimension x,y,z NGX =    50 NGY =   50 NGZ =   64
   dimension x,y,z NGXF=   100 NGYF=  100 NGZF=  128
   support grid    NGXF=   100 NGYF=  100 NGZF=  128
   ions per type =               1  16  32
 NGX,Y,Z   is equivalent  to a cutoff of  10.74, 10.74, 11.37 a.u.
 NGXF,Y,Z  is equivalent  to a cutoff of  21.48, 21.48, 22.75 a.u.


 I would recommend the setting:
   dimension x,y,z NGX =    50 NGY =   50 NGZ =   61
 SYSTEM =  Automatically created and added from (  
 POSCAR =  MLIP output to VASP                     

 Startparameter for this run:
   NWRITE =      2    write-flag & timer
   PREC   = accura    normal or accurate (medium, high low for compatibility)
   ISTART =      1    job   : 0-new  1-cont  2-samecut
   ICHARG =      1    charge: 1-file 2-atom 10-const
   ISPIN  =      2    spin polarized calculation?
   LNONCOLLINEAR =      F non collinear calculations
   LSORBIT =      F    spin-orbit coupling
   INIWAV =      1    electr: 0-lowe 1-rand  2-diag
   LASPH  =      T    aspherical Exc in radial PAW
   METAGGA=      F    non-selfconsistent MetaGGA calc.

 Electronic Relaxation 1
   ENCUT  =  400.0 eV  29.40 Ry    5.42 a.u.  12.62 12.62 15.26*2*pi/ulx,y,z
   ENINI  =  400.0     initial cutoff
   ENAUG  =  605.4 eV  augmentation charge cutoff
   NELM   =     50;   NELMIN=  4; NELMDL=  0     # of ELM steps 
   EDIFF  = 0.1E-04   stopping-criterion for ELM
   LREAL  =      T    real-space projection
   NLSPLINE    = F    spline interpolate recip. space projectors
   LCOMPAT=      F    compatible to vasp.4.4
   GGA_COMPAT  = F    GGA compatible to vasp.4.4-vasp.4.6
   LMAXPAW     = -100 max onsite density
   LMAXMIX     =    4 max onsite mixed and CHGCAR
   VOSKOWN=      0    Vosko Wilk Nusair interpolation
   ROPT   =   -0.00025  -0.00025  -0.00025
 Ionic relaxation
   EDIFFG = 0.1E-03   stopping-criterion for IOM
   NSW    =      0    number of steps for IOM
   NBLOCK =      1;   KBLOCK =      1    inner block; outer block 
   IBRION =     -1    ionic relax: 0-MD 1-quasi-New 2-CG
   NFREE  =      0    steps in history (QN), initial steepest desc. (CG)
   ISIF   =      2    stress and relaxation
   IWAVPR =     10    prediction:  0-non 1-charg 2-wave 3-comb
   ISYM   =      2    0-nonsym 1-usesym 2-fastsym
   LCORR  =      T    Harris-Foulkes like correction to forces

   POTIM  = 0.5000    time-step for ionic-motion
   TEIN   =    0.0    initial temperature
   TEBEG  =    0.0;   TEEND  =   0.0 temperature during run
   SMASS  =  -3.00    Nose mass-parameter (am)
   estimated Nose-frequenzy (Omega)   =  0.10E-29 period in steps =****** mass=  -0.137E-26a.u.
   SCALEE = 1.0000    scale energy and forces
   NPACO  =    256;   APACO  = 16.0  distance and # of slots for P.C.
   PSTRESS=    0.0 pullay stress

  Mass of Ions in am
   POMASS =   7.01 47.88 16.00
  Ionic Valenz
   ZVAL   =   1.00  4.00  6.00
  Atomic Wigner-Seitz radii
   RWIGS  =  -1.00 -1.00 -1.00
  virtual crystal weights 
   VCA    =   1.00  1.00  1.00
   NELECT =     257.0000    total number of electrons
   NUPDOWN=      -1.0000    fix difference up-down

 DOS related values:
   EMIN   =  10.00;   EMAX   =-10.00  energy-range for DOS
   EFERMI =   0.00
   ISMEAR =     1;   SIGMA  =   0.10  broadening in eV -4-tet -1-fermi 0-gaus

 Electronic relaxation 2 (details)
   IALGO  =     38    algorithm
   LDIAG  =      T    sub-space diagonalisation (order eigenvalues)
   LSUBROT=      F    optimize rotation matrix (better conditioning)
   TURBO    =      0    0=normal 1=particle mesh
   IRESTART =      0    0=no restart 2=restart with 2 vectors
   NREBOOT  =      0    no. of reboots
   NMIN     =      0    reboot dimension
   EREF     =   0.00    reference energy to select bands
   IMIX   =      4    mixing-type and parameters
     AMIX     =   0.40;   BMIX     =  1.00
     AMIX_MAG =   1.60;   BMIX_MAG =  1.00
     AMIN     =   0.10
     WC   =   100.;   INIMIX=   1;  MIXPRE=   1;  MAXMIX=  40

 Intra band minimization:
   WEIMIN = 0.0000     energy-eigenvalue tresh-hold
   EBREAK =  0.15E-07  absolut break condition
   DEPER  =   0.30     relativ break condition  

   TIME   =   0.40     timestep for ELM

  volume/ion in A,a.u.               =      11.44        77.17
  Fermi-wavevector in a.u.,A,eV,Ry     =   1.262504  2.385786 21.686543  1.593916
  Thomas-Fermi vector in A             =   2.395909
 
 Write flags
   LWAVE  =      T    write WAVECAR
   LCHARG =      T    write CHGCAR
   LVTOT  =      F    write LOCPOT, total local potential
   LVHAR  =      F    write LOCPOT, Hartree potential only
   LELF   =      F    write electronic localiz. function (ELF)
   LORBIT =      0    0 simple, 1 ext, 2 COOP (PROOUT)


 Dipole corrections
   LMONO  =      F    monopole corrections only (constant potential shift)
   LDIPOL =      F    correct potential (dipole corrections)
   IDIPOL =      0    1-x, 2-y, 3-z, 4-all directions 
   EPSILON=  1.0000000 bulk dielectric constant

 LDA+U is selected, type is set to LDAUTYPE =  2
   angular momentum for each species LDAUL =    -1    2   -1
   U (eV)           for each species LDAUU =   0.0  0.0  0.0
   J (eV)           for each species LDAUJ =   0.0  0.0  0.0
 Exchange correlation treatment:
   GGA     =    --    GGA type
   LEXCH   =     8    internal setting for exchange type
   VOSKOWN=      0    Vosko Wilk Nusair interpolation
   LHFCALC =     F    Hartree Fock is set to
   LHFONE  =     F    Hartree Fock one center treatment
   AEXX    =    0.0000 exact exchange contribution

 Linear response parameters
   LEPSILON=     F    determine dielectric tensor
   LRPA    =     F    only Hartree local field effects (RPA)
   LNABLA  =     F    use nabla operator in PAW spheres
   LVEL    =     F    velocity operator in full k-point grid
   LINTERFAST=   F  fast interpolation
   KINTER  =     0    interpolate to denser k-point grid
   CSHIFT  =0.1000    complex shift for real part using Kramers Kronig
   OMEGAMAX=  -1.0    maximum frequency
   DEG_THRESHOLD= 0.2000000E-02 threshold for treating states as degnerate
   RTIME   =    0.100 relaxation time in fs

 Orbital magnetization related:
   ORBITALMAG=     F  switch on orbital magnetization
   LCHIMAG   =     F  perturbation theory with respect to B field
   DQ        =  0.001000  dq finite difference perturbation B field



--------------------------------------------------------------------------------------------------------


 Static calculation
 charge density and potential will be updated during run
 spin polarized calculation
 Variant of blocked Davidson
 Davidson routine will perform the subspace rotation
 perform sub-space diagonalisation
    after iterative eigenvector-optimisation
 modified Broyden-mixing scheme, WC =      100.0
 initial mixing is a Kerker type mixing with AMIX =  0.4000 and BMIX =      1.0000
 Hartree-type preconditioning will be used
 using additional bands           40
 real space projection scheme for non local part
 use partial core corrections
 calculate Harris-corrections to forces 
   (improved forces if not selfconsistent)
 use gradient corrections 
 use of overlap-Matrix (Vanderbilt PP)
 Gauss-broadening in eV      SIGMA  =   0.10


--------------------------------------------------------------------------------------------------------


  energy-cutoff  :      400.00
  volume of cell :      560.35
      direct lattice vectors                 reciprocal lattice vectors
     7.739170000  0.000000000  0.000000000     0.129212823  0.000000000  0.000000000
     0.000000000  7.739170000  0.000000000     0.000000000  0.129212823  0.000000000
     0.000000000  0.000000000  9.355580000     0.000000000  0.000000000  0.106888082

  length of vectors
     7.739170000  7.739170000  9.355580000     0.129212823  0.129212823  0.106888082


 
 old parameters found on file WAVECAR:
  energy-cutoff  :      400.00
  volume of cell :      560.35
      direct lattice vectors                 reciprocal lattice vectors
     7.739170000  0.000000000  0.000000000     0.129212823  0.000000000  0.000000000
     0.000000000  7.739170000  0.000000000     0.000000000  0.129212823  0.000000000
     0.000000000  0.000000000  9.355580000     0.000000000  0.000000000  0.106888082

  length of vectors

 
 k-points in units of 2pi/SCALE and weight: Automatic Mesh                          
   0.00000000  0.00000000  0.00000000       0.037
   0.04307094  0.00000000  0.00000000       0.074
   0.00000000  0.04307094  0.00000000       0.074
   0.04307094  0.04307094  0.00000000       0.148
   0.00000000  0.00000000  0.03562936       0.074
   0.04307094  0.00000000  0.03562936       0.148
   0.00000000  0.04307094  0.03562936       0.074
   0.04307094  0.04307094  0.03562936       0.148
   0.00000000 -0.04307094  0.03562936       0.074
   0.04307094 -0.04307094  0.03562936       0.148
 
 k-points in reciprocal lattice and weights: Automatic Mesh                          
   0.00000000  0.00000000  0.00000000       0.037
   0.33333333  0.00000000  0.00000000       0.074
   0.00000000  0.33333333  0.00000000       0.074
   0.33333333  0.33333333  0.00000000       0.148
   0.00000000  0.00000000  0.33333333       0.074
   0.33333333  0.00000000  0.33333333       0.148
   0.00000000  0.33333333  0.33333333       0.074
   0.33333333  0.33333333  0.33333333       0.148
   0.00000000 -0.33333333  0.33333333       0.074
   0.33333333 -0.33333333  0.33333333       0.148
 
 position of ions in fractional coordinates (direct lattice) 
   0.50000065  0.00524914  0.04390770
   0.00000000  0.99979843  0.50428407
   0.00000000  0.25123624  0.74716159
   0.24552374  0.25697588  0.99928278
   0.24509605  0.99982039  0.25431988
   0.00000000  0.50056014  0.49904656
   0.00000000  0.74770163  0.74838973
   0.24578863  0.74929224  0.00009171
   0.25016895  0.49967761  0.25267274
   0.50000065  0.00129885  0.49976485
   0.50000065  0.25269118  0.74812358
   0.75447626  0.25697588  0.99928278
   0.75490395  0.99982039  0.25431988
   0.50000065  0.50157575  0.49980546
   0.50000065  0.75053139  0.74873926
   0.75421266  0.74929224  0.00009171
   0.74983105  0.49967761  0.25267274
   0.00000000  0.25054496  0.96163787
   0.00000000  0.00001305  0.71240265
   0.00000000  0.25046484  0.53779349
   0.25045063  0.00056065  0.46288311
   0.00000000  0.00158001  0.28978321
   0.24867008  0.25190686  0.21127926
   0.25340314  0.00185860  0.04009821
   0.24996479  0.25127113  0.78829960
   0.00000000  0.75354980  0.96240319
   0.00000000  0.50025907  0.71182652
   0.00000000  0.75014375  0.53831083
   0.25005653  0.50086637  0.46231126
   0.00000000  0.50081081  0.28853796
   0.24799300  0.75087897  0.21197724
   0.25225186  0.50201249  0.03729304
   0.24999192  0.74916948  0.78908309
   0.50000065  0.23937968  0.96354261
   0.50000065  0.00092245  0.71012059
   0.50000065  0.25108636  0.53810133
   0.74954937  0.00056065  0.46288311
   0.50000065  0.00140364  0.28147266
   0.75132992  0.25190686  0.21127926
   0.74659686  0.00185860  0.04009821
   0.75003521  0.25127113  0.78829960
   0.50000065  0.76593097  0.96411553
   0.50000065  0.50111058  0.71314659
   0.50000065  0.75100689  0.53840809
   0.74994347  0.50086637  0.46231126
   0.50000065  0.50143749  0.28885115
   0.75200829  0.75087897  0.21197724
   0.74774814  0.50201249  0.03729304
   0.75000808  0.74916948  0.78908309
 
 position of ions in cartesian coordinates  (Angst):
   3.86959000  0.04062400  0.41078200
   0.00000000  7.73761000  4.71787000
   0.00000000  1.94436000  6.99013000
   1.90015000  1.98878000  9.34887000
   1.89684000  7.73778000  2.37931000
   0.00000000  3.87392000  4.66887000
   0.00000000  5.78659000  7.00162000
   1.90220000  5.79890000  0.00085800
   1.93610000  3.86709000  2.36390000
   3.86959000  0.01005200  4.67559000
   3.86959000  1.95562000  6.99913000
   5.83902000  1.98878000  9.34887000
   5.84233000  7.73778000  2.37931000
   3.86959000  3.88178000  4.67597000
   3.86959000  5.80849000  7.00489000
   5.83698000  5.79890000  0.00085800
   5.80307000  3.86709000  2.36390000
   0.00000000  1.93901000  8.99668000
   0.00000000  0.00010100  6.66494000
   0.00000000  1.93839000  5.03137000
   1.93828000  0.00433900  4.33054000
   0.00000000  0.01222800  2.71109000
   1.92450000  1.94955000  1.97664000
   1.96113000  0.01438400  0.37514200
   1.93452000  1.94463000  7.37500000
   0.00000000  5.83185000  9.00384000
   0.00000000  3.87159000  6.65955000
   0.00000000  5.80549000  5.03621000
   1.93523000  3.87629000  4.32519000
   0.00000000  3.87586000  2.69944000
   1.91926000  5.81118000  1.98317000
   1.95222000  3.88516000  0.34889800
   1.93473000  5.79795000  7.38233000
   3.86959000  1.85260000  9.01450000
   3.86959000  0.00713900  6.64359000
   3.86959000  1.94320000  5.03425000
   5.80089000  0.00433900  4.33054000
   3.86959000  0.01086300  2.63334000
   5.81467000  1.94955000  1.97664000
   5.77804000  0.01438400  0.37514200
   5.80465000  1.94463000  7.37500000
   3.86959000  5.92767000  9.01986000
   3.86959000  3.87818000  6.67190000
   3.86959000  5.81217000  5.03712000
   5.80394000  3.87629000  4.32519000
   3.86959000  3.88071000  2.70237000
   5.81992000  5.81118000  1.98317000
   5.78695000  3.88516000  0.34889800
   5.80444000  5.79795000  7.38233000
 


--------------------------------------------------------------------------------------------------------


 k-point  1 :   0.0000 0.0000 0.0000  plane waves:   10191
 k-point  2 :   0.3333 0.0000 0.0000  plane waves:   10181
 k-point  3 :   0.0000 0.3333 0.0000  plane waves:   10181
 k-point  4 :   0.3333 0.3333 0.0000  plane waves:   10180
 k-point  5 :   0.0000 0.0000 0.3333  plane waves:   10186
 k-point  6 :   0.3333 0.0000 0.3333  plane waves:   10194
 k-point  7 :   0.0000 0.3333 0.3333  plane waves:   10194
 k-point  8 :   0.3333 0.3333 0.3333  plane waves:   10158
 k-point  9 :   0.0000-0.3333 0.3333  plane waves:   10194
 k-point 10 :   0.3333-0.3333 0.3333  plane waves:   10158

 maximum and minimum number of plane-waves per node :       667      601

 maximum number of plane-waves:     10194
 maximum index in each direction: 
   IXMAX=   12   IYMAX=   12   IZMAX=   15
   IXMIN=  -12   IYMIN=  -12   IZMIN=  -15

 NGX is ok and might be reduce to  50
 NGY is ok and might be reduce to  50
 NGZ is ok and might be reduce to  62

 real space projection operators:
  total allocation   :      17828.89 KBytes
  max/ min on nodes  :       1417.30       1047.82


 parallel 3D FFT for wavefunctions:
    minimum data exchange during FFTs selected (reduces bandwidth)
 parallel 3D FFT for charge:
    minimum data exchange during FFTs selected (reduces bandwidth)


 total amount of memory used by VASP on root node    84971. kBytes
========================================================================

   base      :      30000. kBytes
   nonlr-proj:       6222. kBytes
   fftplans  :       3360. kBytes
   grid      :       9016. kBytes
   one-center:         86. kBytes
   wavefun   :      36287. kBytes
 
     INWAV:  cpu time    2.3126: real time    2.3412
 Broyden mixing: mesh for mixing (old mesh)
   NGX = 25   NGY = 25   NGZ = 31
  (NGX  =100   NGY  =100   NGZ  =128)
  gives a total of  19375 points

 initial charge density was supplied:
 charge density of overlapping atoms calculated
 number of electron     257.0000000 magnetization      29.4000000
 keeping initial charge density in first step


--------------------------------------------------------------------------------------------------------


 Maximum index for non-local projection operator          731
 Maximum index for augmentation-charges         1742 (set IRDMAX)


--------------------------------------------------------------------------------------------------------


 First call to EWALD:  gamma=   0.215
 Maximum number of real-space cells 3x 3x 2
 Maximum number of reciprocal cells 3x 3x 3

 FEWALD executed in parallel
    FEWALD:  cpu time    0.0020: real time    0.0022


----------------------------------------- Iteration    1(   1)  ---------------------------------------


    POTLOK:  cpu time    0.1260: real time    0.1262
    SETDIJ:  cpu time    1.2378: real time    1.2382
atom =   2  type =  2  l = 2
 
 onsite density matrix
 
spin component  1
 
  0.2812  0.0000  0.0000  0.0000  0.0000
  0.0000  0.2812  0.0000  0.0000  0.0000
  0.0000  0.0000  0.2812  0.0000  0.0000
  0.0000  0.0000  0.0000  0.2812  0.0000
  0.0000  0.0000  0.0000  0.0000  0.2812
 
spin component  2
 
  0.2078  0.0000  0.0000  0.0000  0.0000
  0.0000  0.2078  0.0000  0.0000  0.0000
  0.0000  0.0000  0.2078  0.0000  0.0000
  0.0000  0.0000  0.0000  0.2078  0.0000
  0.0000  0.0000  0.0000  0.0000  0.2078
 
 occupancies and eigenvectors
 
  o =  0.2078  v =  0.0000  0.0000  0.0000  0.0000  0.0000  1.0000  0.0000  0.0000  0.0000  0.0000      0.0000  0.0000  0.0000  0.0000  0.0000  0.0000  0.0000  0.0000  0.0000  0.0000
  o =  0.2078  v =  0.0000  0.0000  0.0000  0.0000  0.0000  0.0000  1.0000  0.0000  0.0000  0.0000      0.0000  0.0000  0.0000  0.0000  0.0000  0.0000  0.0000  0.0000  0.0000  0.0000
  o =  0.2078  v =  0.0000  0.0000  0.0000  0.0000  0.0000  0.0000  0.0000  1.0000  0.0000  0.0000      0.0000  0.0000  0.0000  0.0000  0.0000  0.0000  0.0000  0.0000  0.0000  0.0000
  o =  0.2078  v =  0.0000  0.0000  0.0000  0.0000  0.0000  0.0000  0.0000  0.0000  1.0000  0.0000      0.0000  0.0000  0.0000  0.0000  0.0000  0.0000  0.0000  0.0000  0.0000  0.0000
  o =  0.2078  v =  0.0000  0.0000  0.0000  0.0000  0.0000  0.0000  0.0000  0.0000  0.0000  1.0000      0.0000  0.0000  0.0000  0.0000  0.0000  0.0000  0.0000  0.0000  0.0000  0.0000
  o =  0.2812  v =  1.0000  0.0000  0.0000  0.0000  0.0000  0.0000  0.0000  0.0000  0.0000  0.0000      0.0000  0.0000  0.0000  0.0000  0.0000  0.0000  0.0000  0.0000  0.0000  0.0000
  o =  0.2812  v =  0.0000  1.0000  0.0000  0.0000  0.0000  0.0000  0.0000  0.0000  0.0000  0.0000      0.0000  0.0000  0.0000  0.0000  0.0000  0.0000  0.0000  0.0000  0.0000  0.0000
  o =  0.2812  v =  0.0000  0.0000  1.0000  0.0000  0.0000  0.0000  0.0000  0.0000  0.0000  0.0000      0.0000  0.0000  0.0000  0.0000  0.0000  0.0000  0.0000  0.0000  0.0000  0.0000
  o =  0.2812  v =  0.0000  0.0000  0.0000  1.0000  0.0000  0.0000  0.0000  0.0000  0.0000  0.0000      0.0000  0.0000  0.0000  0.0000  0.0000  0.0000  0.0000  0.0000  0.0000  0.0000
  o =  0.2812  v =  0.0000  0.0000  0.0000  0.0000  1.0000  0.0000  0.0000  0.0000  0.0000  0.0000      0.0000  0.0000  0.0000  0.0000  0.0000  0.0000  0.0000  0.0000  0.0000  0.0000
atom =   3  type =  2  l = 2
 
 onsite density matrix
 
spin component  1
 
  0.2812  0.0000  0.0000  0.0000  0.0000
  0.0000  0.2812  0.0000  0.0000  0.0000
  0.0000  0.0000  0.2812  0.0000  0.0000
  0.0000  0.0000  0.0000  0.2812  0.0000
  0.0000  0.0000  0.0000  0.0000  0.2812
 
spin component  2
 
  0.2078  0.0000  0.0000  0.0000  0.0000
  0.0000  0.2078  0.0000  0.0000  0.0000
  0.0000  0.0000  0.2078  0.0000  0.0000
  0.0000  0.0000  0.0000  0.2078  0.0000
  0.0000  0.0000  0.0000  0.0000  0.2078
 
 occupancies and eigenvectors
 
  o =  0.2078  v =  0.0000  0.0000  0.0000  0.0000  0.0000  1.0000  0.0000  0.0000  0.0000  0.0000      0.0000  0.0000  0.0000  0.0000  0.0000  0.0000  0.0000  0.0000  0.0000  0.0000
  o =  0.2078  v =  0.0000  0.0000  0.0000  0.0000  0.0000  0.0000  1.0000  0.0000  0.0000  0.0000      0.0000  0.0000  0.0000  0.0000  0.0000  0.0000  0.0000  0.0000  0.0000  0.0000
  o =  0.2078  v =  0.0000  0.0000  0.0000  0.0000  0.0000  0.0000  0.0000  1.0000  0.0000  0.0000      0.0000  0.0000  0.0000  0.0000  0.0000  0.0000  0.0000  0.0000  0.0000  0.0000
  o =  0.2078  v =  0.0000  0.0000  0.0000  0.0000  0.0000  0.0000  0.0000  0.0000  1.0000  0.0000      0.0000  0.0000  0.0000  0.0000  0.0000  0.0000  0.0000  0.0000  0.0000  0.0000
  o =  0.2078  v =  0.0000  0.0000  0.0000  0.0000  0.0000  0.0000  0.0000  0.0000  0.0000  1.0000      0.0000  0.0000  0.0000  0.0000  0.0000  0.0000  0.0000  0.0000  0.0000  0.0000
  o =  0.2812  v =  1.0000  0.0000  0.0000  0.0000  0.0000  0.0000  0.0000  0.0000  0.0000  0.0000      0.0000  0.0000  0.0000  0.0000  0.0000  0.0000  0.0000  0.0000  0.0000  0.0000
  o =  0.2812  v =  0.0000  1.0000  0.0000  0.0000  0.0000  0.0000  0.0000  0.0000  0.0000  0.0000      0.0000  0.0000  0.0000  0.0000  0.0000  0.0000  0.0000  0.0000  0.0000  0.0000
  o =  0.2812  v =  0.0000  0.0000  1.0000  0.0000  0.0000  0.0000  0.0000  0.0000  0.0000  0.0000      0.0000  0.0000  0.0000  0.0000  0.0000  0.0000  0.0000  0.0000  0.0000  0.0000
  o =  0.2812  v =  0.0000  0.0000  0.0000  1.0000  0.0000  0.0000  0.0000  0.0000  0.0000  0.0000      0.0000  0.0000  0.0000  0.0000  0.0000  0.0000  0.0000  0.0000  0.0000  0.0000
  o =  0.2812  v =  0.0000  0.0000  0.0000  0.0000  1.0000  0.0000  0.0000  0.0000  0.0000  0.0000      0.0000  0.0000  0.0000  0.0000  0.0000  0.0000  0.0000  0.0000  0.0000  0.0000
atom =   4  type =  2  l = 2
 
 onsite density matrix
 
spin component  1
 
  0.2812  0.0000  0.0000  0.0000  0.0000
  0.0000  0.2812  0.0000  0.0000  0.0000
  0.0000  0.0000  0.2812  0.0000  0.0000
  0.0000  0.0000  0.0000  0.2812  0.0000
  0.0000  0.0000  0.0000  0.0000  0.2812
 
spin component  2
 
  0.2078  0.0000  0.0000  0.0000  0.0000
  0.0000  0.2078  0.0000  0.0000  0.0000
  0.0000  0.0000  0.2078  0.0000  0.0000
  0.0000  0.0000  0.0000  0.2078  0.0000
  0.0000  0.0000  0.0000  0.0000  0.2078
 
 occupancies and eigenvectors
 
  o =  0.2078  v =  0.0000  0.0000  0.0000  0.0000  0.0000  1.0000  0.0000  0.0000  0.0000  0.0000      0.0000  0.0000  0.0000  0.0000  0.0000  0.0000  0.0000  0.0000  0.0000  0.0000
  o =  0.2078  v =  0.0000  0.0000  0.0000  0.0000  0.0000  0.0000  1.0000  0.0000  0.0000  0.0000      0.0000  0.0000  0.0000  0.0000  0.0000  0.0000  0.0000  0.0000  0.0000  0.0000
  o =  0.2078  v =  0.0000  0.0000  0.0000  0.0000  0.0000  0.0000  0.0000  1.0000  0.0000  0.0000      0.0000  0.0000  0.0000  0.0000  0.0000  0.0000  0.0000  0.0000  0.0000  0.0000
  o =  0.2078  v =  0.0000  0.0000  0.0000  0.0000  0.0000  0.0000  0.0000  0.0000  1.0000  0.0000      0.0000  0.0000  0.0000  0.0000  0.0000  0.0000  0.0000  0.0000  0.0000  0.0000
  o =  0.2078  v =  0.0000  0.0000  0.0000  0.0000  0.0000  0.0000  0.0000  0.0000  0.0000  1.0000      0.0000  0.0000  0.0000  0.0000  0.0000  0.0000  0.0000  0.0000  0.0000  0.0000
  o =  0.2812  v =  1.0000  0.0000  0.0000  0.0000  0.0000  0.0000  0.0000  0.0000  0.0000  0.0000      0.0000  0.0000  0.0000  0.0000  0.0000  0.0000  0.0000  0.0000  0.0000  0.0000
  o =  0.2812  v =  0.0000  1.0000  0.0000  0.0000  0.0000  0.0000  0.0000  0.0000  0.0000  0.0000      0.0000  0.0000  0.0000  0.0000  0.0000  0.0000  0.0000  0.0000  0.0000  0.0000
  o =  0.2812  v =  0.0000  0.0000  1.0000  0.0000  0.0000  0.0000  0.0000  0.0000  0.0000  0.0000      0.0000  0.0000  0.0000  0.0000  0.0000  0.0000  0.0000  0.0000  0.0000  0.0000
  o =  0.2812  v =  0.0000  0.0000  0.0000  1.0000  0.0000  0.0000  0.0000  0.0000  0.0000  0.0000      0.0000  0.0000  0.0000  0.0000  0.0000  0.0000  0.0000  0.0000  0.0000  0.0000
  o =  0.2812  v =  0.0000  0.0000  0.0000  0.0000  1.0000  0.0000  0.0000  0.0000  0.0000  0.0000      0.0000  0.0000  0.0000  0.0000  0.0000  0.0000  0.0000  0.0000  0.0000  0.0000
atom =   5  type =  2  l = 2
 
 onsite density matrix
 
spin component  1
 
  0.2812  0.0000  0.0000  0.0000  0.0000
  0.0000  0.2812  0.0000  0.0000  0.0000
  0.0000  0.0000  0.2812  0.0000  0.0000
  0.0000  0.0000  0.0000  0.2812  0.0000
  0.0000  0.0000  0.0000  0.0000  0.2812
 
spin component  2
 
  0.2078  0.0000  0.0000  0.0000  0.0000
  0.0000  0.2078  0.0000  0.0000  0.0000
  0.0000  0.0000  0.2078  0.0000  0.0000
  0.0000  0.0000  0.0000  0.2078  0.0000
  0.0000  0.0000  0.0000  0.0000  0.2078
 
 occupancies and eigenvectors
 
  o =  0.2078  v =  0.0000  0.0000  0.0000  0.0000  0.0000  1.0000  0.0000  0.0000  0.0000  0.0000      0.0000  0.0000  0.0000  0.0000  0.0000  0.0000  0.0000  0.0000  0.0000  0.0000
  o =  0.2078  v =  0.0000  0.0000  0.0000  0.0000  0.0000  0.0000  1.0000  0.0000  0.0000  0.0000      0.0000  0.0000  0.0000  0.0000  0.0000  0.0000  0.0000  0.0000  0.0000  0.0000
  o =  0.2078  v =  0.0000  0.0000  0.0000  0.0000  0.0000  0.0000  0.0000  1.0000  0.0000  0.0000      0.0000  0.0000  0.0000  0.0000  0.0000  0.0000  0.0000  0.0000  0.0000  0.0000
  o =  0.2078  v =  0.0000  0.0000  0.0000  0.0000  0.0000  0.0000  0.0000  0.0000  1.0000  0.0000      0.0000  0.0000  0.0000  0.0000  0.0000  0.0000  0.0000  0.0000  0.0000  0.0000
  o =  0.2078  v =  0.0000  0.0000  0.0000  0.0000  0.0000  0.0000  0.0000  0.0000  0.0000  1.0000      0.0000  0.0000  0.0000  0.0000  0.0000  0.0000  0.0000  0.0000  0.0000  0.0000
  o =  0.2812  v =  1.0000  0.0000  0.0000  0.0000  0.0000  0.0000  0.0000  0.0000  0.0000  0.0000      0.0000  0.0000  0.0000  0.0000  0.0000  0.0000  0.0000  0.0000  0.0000  0.0000
  o =  0.2812  v =  0.0000  1.0000  0.0000  0.0000  0.0000  0.0000  0.0000  0.0000  0.0000  0.0000      0.0000  0.0000  0.0000  0.0000  0.0000  0.0000  0.0000  0.0000  0.0000  0.0000
  o =  0.2812  v =  0.0000  0.0000  1.0000  0.0000  0.0000  0.0000  0.0000  0.0000  0.0000  0.0000      0.0000  0.0000  0.0000  0.0000  0.0000  0.0000  0.0000  0.0000  0.0000  0.0000
  o =  0.2812  v =  0.0000  0.0000  0.0000  1.0000  0.0000  0.0000  0.0000  0.0000  0.0000  0.0000      0.0000  0.0000  0.0000  0.0000  0.0000  0.0000  0.0000  0.0000  0.0000  0.0000
  o =  0.2812  v =  0.0000  0.0000  0.0000  0.0000  1.0000  0.0000  0.0000  0.0000  0.0000  0.0000      0.0000  0.0000  0.0000  0.0000  0.0000  0.0000  0.0000  0.0000  0.0000  0.0000
atom =   6  type =  2  l = 2
 
 onsite density matrix
 
spin component  1
 
  0.2812  0.0000  0.0000  0.0000  0.0000
  0.0000  0.2812  0.0000  0.0000  0.0000
  0.0000  0.0000  0.2812  0.0000  0.0000
  0.0000  0.0000  0.0000  0.2812  0.0000
  0.0000  0.0000  0.0000  0.0000  0.2812
 
spin component  2
 
  0.2078  0.0000  0.0000  0.0000  0.0000
  0.0000  0.2078  0.0000  0.0000  0.0000
  0.0000  0.0000  0.2078  0.0000  0.0000
  0.0000  0.0000  0.0000  0.2078  0.0000
  0.0000  0.0000  0.0000  0.0000  0.2078
 
 occupancies and eigenvectors
 
  o =  0.2078  v =  0.0000  0.0000  0.0000  0.0000  0.0000  1.0000  0.0000  0.0000  0.0000  0.0000      0.0000  0.0000  0.0000  0.0000  0.0000  0.0000  0.0000  0.0000  0.0000  0.0000
  o =  0.2078  v =  0.0000  0.0000  0.0000  0.0000  0.0000  0.0000  1.0000  0.0000  0.0000  0.0000      0.0000  0.0000  0.0000  0.0000  0.0000  0.0000  0.0000  0.0000  0.0000  0.0000
  o =  0.2078  v =  0.0000  0.0000  0.0000  0.0000  0.0000  0.0000  0.0000  1.0000  0.0000  0.0000      0.0000  0.0000  0.0000  0.0000  0.0000  0.0000  0.0000  0.0000  0.0000  0.0000
  o =  0.2078  v =  0.0000  0.0000  0.0000  0.0000  0.0000  0.0000  0.0000  0.0000  1.0000  0.0000      0.0000  0.0000  0.0000  0.0000  0.0000  0.0000  0.0000  0.0000  0.0000  0.0000
  o =  0.2078  v =  0.0000  0.0000  0.0000  0.0000  0.0000  0.0000  0.0000  0.0000  0.0000  1.0000      0.0000  0.0000  0.0000  0.0000  0.0000  0.0000  0.0000  0.0000  0.0000  0.0000
  o =  0.2812  v =  1.0000  0.0000  0.0000  0.0000  0.0000  0.0000  0.0000  0.0000  0.0000  0.0000      0.0000  0.0000  0.0000  0.0000  0.0000  0.0000  0.0000  0.0000  0.0000  0.0000
  o =  0.2812  v =  0.0000  1.0000  0.0000  0.0000  0.0000  0.0000  0.0000  0.0000  0.0000  0.0000      0.0000  0.0000  0.0000  0.0000  0.0000  0.0000  0.0000  0.0000  0.0000  0.0000
  o =  0.2812  v =  0.0000  0.0000  1.0000  0.0000  0.0000  0.0000  0.0000  0.0000  0.0000  0.0000      0.0000  0.0000  0.0000  0.0000  0.0000  0.0000  0.0000  0.0000  0.0000  0.0000
  o =  0.2812  v =  0.0000  0.0000  0.0000  1.0000  0.0000  0.0000  0.0000  0.0000  0.0000  0.0000      0.0000  0.0000  0.0000  0.0000  0.0000  0.0000  0.0000  0.0000  0.0000  0.0000
  o =  0.2812  v =  0.0000  0.0000  0.0000  0.0000  1.0000  0.0000  0.0000  0.0000  0.0000  0.0000      0.0000  0.0000  0.0000  0.0000  0.0000  0.0000  0.0000  0.0000  0.0000  0.0000
atom =   7  type =  2  l = 2
 
 onsite density matrix
 
spin component  1
 
  0.2812  0.0000  0.0000  0.0000  0.0000
  0.0000  0.2812  0.0000  0.0000  0.0000
  0.0000  0.0000  0.2812  0.0000  0.0000
  0.0000  0.0000  0.0000  0.2812  0.0000
  0.0000  0.0000  0.0000  0.0000  0.2812
 
spin component  2
 
  0.2078  0.0000  0.0000  0.0000  0.0000
  0.0000  0.2078  0.0000  0.0000  0.0000
  0.0000  0.0000  0.2078  0.0000  0.0000
  0.0000  0.0000  0.0000  0.2078  0.0000
  0.0000  0.0000  0.0000  0.0000  0.2078
 
 occupancies and eigenvectors
 
  o =  0.2078  v =  0.0000  0.0000  0.0000  0.0000  0.0000  1.0000  0.0000  0.0000  0.0000  0.0000      0.0000  0.0000  0.0000  0.0000  0.0000  0.0000  0.0000  0.0000  0.0000  0.0000
  o =  0.2078  v =  0.0000  0.0000  0.0000  0.0000  0.0000  0.0000  1.0000  0.0000  0.0000  0.0000      0.0000  0.0000  0.0000  0.0000  0.0000  0.0000  0.0000  0.0000  0.0000  0.0000
  o =  0.2078  v =  0.0000  0.0000  0.0000  0.0000  0.0000  0.0000  0.0000  1.0000  0.0000  0.0000      0.0000  0.0000  0.0000  0.0000  0.0000  0.0000  0.0000  0.0000  0.0000  0.0000
  o =  0.2078  v =  0.0000  0.0000  0.0000  0.0000  0.0000  0.0000  0.0000  0.0000  1.0000  0.0000      0.0000  0.0000  0.0000  0.0000  0.0000  0.0000  0.0000  0.0000  0.0000  0.0000
  o =  0.2078  v =  0.0000  0.0000  0.0000  0.0000  0.0000  0.0000  0.0000  0.0000  0.0000  1.0000      0.0000  0.0000  0.0000  0.0000  0.0000  0.0000  0.0000  0.0000  0.0000  0.0000
  o =  0.2812  v =  1.0000  0.0000  0.0000  0.0000  0.0000  0.0000  0.0000  0.0000  0.0000  0.0000      0.0000  0.0000  0.0000  0.0000  0.0000  0.0000  0.0000  0.0000  0.0000  0.0000
  o =  0.2812  v =  0.0000  1.0000  0.0000  0.0000  0.0000  0.0000  0.0000  0.0000  0.0000  0.0000      0.0000  0.0000  0.0000  0.0000  0.0000  0.0000  0.0000  0.0000  0.0000  0.0000
  o =  0.2812  v =  0.0000  0.0000  1.0000  0.0000  0.0000  0.0000  0.0000  0.0000  0.0000  0.0000      0.0000  0.0000  0.0000  0.0000  0.0000  0.0000  0.0000  0.0000  0.0000  0.0000
  o =  0.2812  v =  0.0000  0.0000  0.0000  1.0000  0.0000  0.0000  0.0000  0.0000  0.0000  0.0000      0.0000  0.0000  0.0000  0.0000  0.0000  0.0000  0.0000  0.0000  0.0000  0.0000
  o =  0.2812  v =  0.0000  0.0000  0.0000  0.0000  1.0000  0.0000  0.0000  0.0000  0.0000  0.0000      0.0000  0.0000  0.0000  0.0000  0.0000  0.0000  0.0000  0.0000  0.0000  0.0000
atom =   8  type =  2  l = 2
 
 onsite density matrix
 
spin component  1
 
  0.2812  0.0000  0.0000  0.0000  0.0000
  0.0000  0.2812  0.0000  0.0000  0.0000
  0.0000  0.0000  0.2812  0.0000  0.0000
  0.0000  0.0000  0.0000  0.2812  0.0000
  0.0000  0.0000  0.0000  0.0000  0.2812
 
spin component  2
 
  0.2078  0.0000  0.0000  0.0000  0.0000
  0.0000  0.2078  0.0000  0.0000  0.0000
  0.0000  0.0000  0.2078  0.0000  0.0000
  0.0000  0.0000  0.0000  0.2078  0.0000
  0.0000  0.0000  0.0000  0.0000  0.2078
 
 occupancies and eigenvectors
 
  o =  0.2078  v =  0.0000  0.0000  0.0000  0.0000  0.0000  1.0000  0.0000  0.0000  0.0000  0.0000      0.0000  0.0000  0.0000  0.0000  0.0000  0.0000  0.0000  0.0000  0.0000  0.0000
  o =  0.2078  v =  0.0000  0.0000  0.0000  0.0000  0.0000  0.0000  1.0000  0.0000  0.0000  0.0000      0.0000  0.0000  0.0000  0.0000  0.0000  0.0000  0.0000  0.0000  0.0000  0.0000
  o =  0.2078  v =  0.0000  0.0000  0.0000  0.0000  0.0000  0.0000  0.0000  1.0000  0.0000  0.0000      0.0000  0.0000  0.0000  0.0000  0.0000  0.0000  0.0000  0.0000  0.0000  0.0000
  o =  0.2078  v =  0.0000  0.0000  0.0000  0.0000  0.0000  0.0000  0.0000  0.0000  1.0000  0.0000      0.0000  0.0000  0.0000  0.0000  0.0000  0.0000  0.0000  0.0000  0.0000  0.0000
  o =  0.2078  v =  0.0000  0.0000  0.0000  0.0000  0.0000  0.0000  0.0000  0.0000  0.0000  1.0000      0.0000  0.0000  0.0000  0.0000  0.0000  0.0000  0.0000  0.0000  0.0000  0.0000
  o =  0.2812  v =  1.0000  0.0000  0.0000  0.0000  0.0000  0.0000  0.0000  0.0000  0.0000  0.0000      0.0000  0.0000  0.0000  0.0000  0.0000  0.0000  0.0000  0.0000  0.0000  0.0000
  o =  0.2812  v =  0.0000  1.0000  0.0000  0.0000  0.0000  0.0000  0.0000  0.0000  0.0000  0.0000      0.0000  0.0000  0.0000  0.0000  0.0000  0.0000  0.0000  0.0000  0.0000  0.0000
  o =  0.2812  v =  0.0000  0.0000  1.0000  0.0000  0.0000  0.0000  0.0000  0.0000  0.0000  0.0000      0.0000  0.0000  0.0000  0.0000  0.0000  0.0000  0.0000  0.0000  0.0000  0.0000
  o =  0.2812  v =  0.0000  0.0000  0.0000  1.0000  0.0000  0.0000  0.0000  0.0000  0.0000  0.0000      0.0000  0.0000  0.0000  0.0000  0.0000  0.0000  0.0000  0.0000  0.0000  0.0000
  o =  0.2812  v =  0.0000  0.0000  0.0000  0.0000  1.0000  0.0000  0.0000  0.0000  0.0000  0.0000      0.0000  0.0000  0.0000  0.0000  0.0000  0.0000  0.0000  0.0000  0.0000  0.0000
atom =   9  type =  2  l = 2
 
 onsite density matrix
 
spin component  1
 
  0.2812  0.0000  0.0000  0.0000  0.0000
  0.0000  0.2812  0.0000  0.0000  0.0000
  0.0000  0.0000  0.2812  0.0000  0.0000
  0.0000  0.0000  0.0000  0.2812  0.0000
  0.0000  0.0000  0.0000  0.0000  0.2812
 
spin component  2
 
  0.2078  0.0000  0.0000  0.0000  0.0000
  0.0000  0.2078  0.0000  0.0000  0.0000
  0.0000  0.0000  0.2078  0.0000  0.0000
  0.0000  0.0000  0.0000  0.2078  0.0000
  0.0000  0.0000  0.0000  0.0000  0.2078
 
 occupancies and eigenvectors
 
  o =  0.2078  v =  0.0000  0.0000  0.0000  0.0000  0.0000  1.0000  0.0000  0.0000  0.0000  0.0000      0.0000  0.0000  0.0000  0.0000  0.0000  0.0000  0.0000  0.0000  0.0000  0.0000
  o =  0.2078  v =  0.0000  0.0000  0.0000  0.0000  0.0000  0.0000  1.0000  0.0000  0.0000  0.0000      0.0000  0.0000  0.0000  0.0000  0.0000  0.0000  0.0000  0.0000  0.0000  0.0000
  o =  0.2078  v =  0.0000  0.0000  0.0000  0.0000  0.0000  0.0000  0.0000  1.0000  0.0000  0.0000      0.0000  0.0000  0.0000  0.0000  0.0000  0.0000  0.0000  0.0000  0.0000  0.0000
  o =  0.2078  v =  0.0000  0.0000  0.0000  0.0000  0.0000  0.0000  0.0000  0.0000  1.0000  0.0000      0.0000  0.0000  0.0000  0.0000  0.0000  0.0000  0.0000  0.0000  0.0000  0.0000
  o =  0.2078  v =  0.0000  0.0000  0.0000  0.0000  0.0000  0.0000  0.0000  0.0000  0.0000  1.0000      0.0000  0.0000  0.0000  0.0000  0.0000  0.0000  0.0000  0.0000  0.0000  0.0000
  o =  0.2812  v =  1.0000  0.0000  0.0000  0.0000  0.0000  0.0000  0.0000  0.0000  0.0000  0.0000      0.0000  0.0000  0.0000  0.0000  0.0000  0.0000  0.0000  0.0000  0.0000  0.0000
  o =  0.2812  v =  0.0000  1.0000  0.0000  0.0000  0.0000  0.0000  0.0000  0.0000  0.0000  0.0000      0.0000  0.0000  0.0000  0.0000  0.0000  0.0000  0.0000  0.0000  0.0000  0.0000
  o =  0.2812  v =  0.0000  0.0000  1.0000  0.0000  0.0000  0.0000  0.0000  0.0000  0.0000  0.0000      0.0000  0.0000  0.0000  0.0000  0.0000  0.0000  0.0000  0.0000  0.0000  0.0000
  o =  0.2812  v =  0.0000  0.0000  0.0000  1.0000  0.0000  0.0000  0.0000  0.0000  0.0000  0.0000      0.0000  0.0000  0.0000  0.0000  0.0000  0.0000  0.0000  0.0000  0.0000  0.0000
  o =  0.2812  v =  0.0000  0.0000  0.0000  0.0000  1.0000  0.0000  0.0000  0.0000  0.0000  0.0000      0.0000  0.0000  0.0000  0.0000  0.0000  0.0000  0.0000  0.0000  0.0000  0.0000
atom =  10  type =  2  l = 2
 
 onsite density matrix
 
spin component  1
 
  0.2812  0.0000  0.0000  0.0000  0.0000
  0.0000  0.2812  0.0000  0.0000  0.0000
  0.0000  0.0000  0.2812  0.0000  0.0000
  0.0000  0.0000  0.0000  0.2812  0.0000
  0.0000  0.0000  0.0000  0.0000  0.2812
 
spin component  2
 
  0.2078  0.0000  0.0000  0.0000  0.0000
  0.0000  0.2078  0.0000  0.0000  0.0000
  0.0000  0.0000  0.2078  0.0000  0.0000
  0.0000  0.0000  0.0000  0.2078  0.0000
  0.0000  0.0000  0.0000  0.0000  0.2078
 
 occupancies and eigenvectors
 
  o =  0.2078  v =  0.0000  0.0000  0.0000  0.0000  0.0000  1.0000  0.0000  0.0000  0.0000  0.0000      0.0000  0.0000  0.0000  0.0000  0.0000  0.0000  0.0000  0.0000  0.0000  0.0000
  o =  0.2078  v =  0.0000  0.0000  0.0000  0.0000  0.0000  0.0000  1.0000  0.0000  0.0000  0.0000      0.0000  0.0000  0.0000  0.0000  0.0000  0.0000  0.0000  0.0000  0.0000  0.0000
  o =  0.2078  v =  0.0000  0.0000  0.0000  0.0000  0.0000  0.0000  0.0000  1.0000  0.0000  0.0000      0.0000  0.0000  0.0000  0.0000  0.0000  0.0000  0.0000  0.0000  0.0000  0.0000
  o =  0.2078  v =  0.0000  0.0000  0.0000  0.0000  0.0000  0.0000  0.0000  0.0000  1.0000  0.0000      0.0000  0.0000  0.0000  0.0000  0.0000  0.0000  0.0000  0.0000  0.0000  0.0000
  o =  0.2078  v =  0.0000  0.0000  0.0000  0.0000  0.0000  0.0000  0.0000  0.0000  0.0000  1.0000      0.0000  0.0000  0.0000  0.0000  0.0000  0.0000  0.0000  0.0000  0.0000  0.0000
  o =  0.2812  v =  1.0000  0.0000  0.0000  0.0000  0.0000  0.0000  0.0000  0.0000  0.0000  0.0000      0.0000  0.0000  0.0000  0.0000  0.0000  0.0000  0.0000  0.0000  0.0000  0.0000
  o =  0.2812  v =  0.0000  1.0000  0.0000  0.0000  0.0000  0.0000  0.0000  0.0000  0.0000  0.0000      0.0000  0.0000  0.0000  0.0000  0.0000  0.0000  0.0000  0.0000  0.0000  0.0000
  o =  0.2812  v =  0.0000  0.0000  1.0000  0.0000  0.0000  0.0000  0.0000  0.0000  0.0000  0.0000      0.0000  0.0000  0.0000  0.0000  0.0000  0.0000  0.0000  0.0000  0.0000  0.0000
  o =  0.2812  v =  0.0000  0.0000  0.0000  1.0000  0.0000  0.0000  0.0000  0.0000  0.0000  0.0000      0.0000  0.0000  0.0000  0.0000  0.0000  0.0000  0.0000  0.0000  0.0000  0.0000
  o =  0.2812  v =  0.0000  0.0000  0.0000  0.0000  1.0000  0.0000  0.0000  0.0000  0.0000  0.0000      0.0000  0.0000  0.0000  0.0000  0.0000  0.0000  0.0000  0.0000  0.0000  0.0000
atom =  11  type =  2  l = 2
 
 onsite density matrix
 
spin component  1
 
  0.2812  0.0000  0.0000  0.0000  0.0000
  0.0000  0.2812  0.0000  0.0000  0.0000
  0.0000  0.0000  0.2812  0.0000  0.0000
  0.0000  0.0000  0.0000  0.2812  0.0000
  0.0000  0.0000  0.0000  0.0000  0.2812
 
spin component  2
 
  0.2078  0.0000  0.0000  0.0000  0.0000
  0.0000  0.2078  0.0000  0.0000  0.0000
  0.0000  0.0000  0.2078  0.0000  0.0000
  0.0000  0.0000  0.0000  0.2078  0.0000
  0.0000  0.0000  0.0000  0.0000  0.2078
 
 occupancies and eigenvectors
 
  o =  0.2078  v =  0.0000  0.0000  0.0000  0.0000  0.0000  1.0000  0.0000  0.0000  0.0000  0.0000      0.0000  0.0000  0.0000  0.0000  0.0000  0.0000  0.0000  0.0000  0.0000  0.0000
  o =  0.2078  v =  0.0000  0.0000  0.0000  0.0000  0.0000  0.0000  1.0000  0.0000  0.0000  0.0000      0.0000  0.0000  0.0000  0.0000  0.0000  0.0000  0.0000  0.0000  0.0000  0.0000
  o =  0.2078  v =  0.0000  0.0000  0.0000  0.0000  0.0000  0.0000  0.0000  1.0000  0.0000  0.0000      0.0000  0.0000  0.0000  0.0000  0.0000  0.0000  0.0000  0.0000  0.0000  0.0000
  o =  0.2078  v =  0.0000  0.0000  0.0000  0.0000  0.0000  0.0000  0.0000  0.0000  1.0000  0.0000      0.0000  0.0000  0.0000  0.0000  0.0000  0.0000  0.0000  0.0000  0.0000  0.0000
  o =  0.2078  v =  0.0000  0.0000  0.0000  0.0000  0.0000  0.0000  0.0000  0.0000  0.0000  1.0000      0.0000  0.0000  0.0000  0.0000  0.0000  0.0000  0.0000  0.0000  0.0000  0.0000
  o =  0.2812  v =  1.0000  0.0000  0.0000  0.0000  0.0000  0.0000  0.0000  0.0000  0.0000  0.0000      0.0000  0.0000  0.0000  0.0000  0.0000  0.0000  0.0000  0.0000  0.0000  0.0000
  o =  0.2812  v =  0.0000  1.0000  0.0000  0.0000  0.0000  0.0000  0.0000  0.0000  0.0000  0.0000      0.0000  0.0000  0.0000  0.0000  0.0000  0.0000  0.0000  0.0000  0.0000  0.0000
  o =  0.2812  v =  0.0000  0.0000  1.0000  0.0000  0.0000  0.0000  0.0000  0.0000  0.0000  0.0000      0.0000  0.0000  0.0000  0.0000  0.0000  0.0000  0.0000  0.0000  0.0000  0.0000
  o =  0.2812  v =  0.0000  0.0000  0.0000  1.0000  0.0000  0.0000  0.0000  0.0000  0.0000  0.0000      0.0000  0.0000  0.0000  0.0000  0.0000  0.0000  0.0000  0.0000  0.0000  0.0000
  o =  0.2812  v =  0.0000  0.0000  0.0000  0.0000  1.0000  0.0000  0.0000  0.0000  0.0000  0.0000      0.0000  0.0000  0.0000  0.0000  0.0000  0.0000  0.0000  0.0000  0.0000  0.0000
atom =  12  type =  2  l = 2
 
 onsite density matrix
 
spin component  1
 
  0.2812  0.0000  0.0000  0.0000  0.0000
  0.0000  0.2812  0.0000  0.0000  0.0000
  0.0000  0.0000  0.2812  0.0000  0.0000
  0.0000  0.0000  0.0000  0.2812  0.0000
  0.0000  0.0000  0.0000  0.0000  0.2812
 
spin component  2
 
  0.2078  0.0000  0.0000  0.0000  0.0000
  0.0000  0.2078  0.0000  0.0000  0.0000
  0.0000  0.0000  0.2078  0.0000  0.0000
  0.0000  0.0000  0.0000  0.2078  0.0000
  0.0000  0.0000  0.0000  0.0000  0.2078
 
 occupancies and eigenvectors
 
  o =  0.2078  v =  0.0000  0.0000  0.0000  0.0000  0.0000  1.0000  0.0000  0.0000  0.0000  0.0000      0.0000  0.0000  0.0000  0.0000  0.0000  0.0000  0.0000  0.0000  0.0000  0.0000
  o =  0.2078  v =  0.0000  0.0000  0.0000  0.0000  0.0000  0.0000  1.0000  0.0000  0.0000  0.0000      0.0000  0.0000  0.0000  0.0000  0.0000  0.0000  0.0000  0.0000  0.0000  0.0000
  o =  0.2078  v =  0.0000  0.0000  0.0000  0.0000  0.0000  0.0000  0.0000  1.0000  0.0000  0.0000      0.0000  0.0000  0.0000  0.0000  0.0000  0.0000  0.0000  0.0000  0.0000  0.0000
  o =  0.2078  v =  0.0000  0.0000  0.0000  0.0000  0.0000  0.0000  0.0000  0.0000  1.0000  0.0000      0.0000  0.0000  0.0000  0.0000  0.0000  0.0000  0.0000  0.0000  0.0000  0.0000
  o =  0.2078  v =  0.0000  0.0000  0.0000  0.0000  0.0000  0.0000  0.0000  0.0000  0.0000  1.0000      0.0000  0.0000  0.0000  0.0000  0.0000  0.0000  0.0000  0.0000  0.0000  0.0000
  o =  0.2812  v =  1.0000  0.0000  0.0000  0.0000  0.0000  0.0000  0.0000  0.0000  0.0000  0.0000      0.0000  0.0000  0.0000  0.0000  0.0000  0.0000  0.0000  0.0000  0.0000  0.0000
  o =  0.2812  v =  0.0000  1.0000  0.0000  0.0000  0.0000  0.0000  0.0000  0.0000  0.0000  0.0000      0.0000  0.0000  0.0000  0.0000  0.0000  0.0000  0.0000  0.0000  0.0000  0.0000
  o =  0.2812  v =  0.0000  0.0000  1.0000  0.0000  0.0000  0.0000  0.0000  0.0000  0.0000  0.0000      0.0000  0.0000  0.0000  0.0000  0.0000  0.0000  0.0000  0.0000  0.0000  0.0000
  o =  0.2812  v =  0.0000  0.0000  0.0000  1.0000  0.0000  0.0000  0.0000  0.0000  0.0000  0.0000      0.0000  0.0000  0.0000  0.0000  0.0000  0.0000  0.0000  0.0000  0.0000  0.0000
  o =  0.2812  v =  0.0000  0.0000  0.0000  0.0000  1.0000  0.0000  0.0000  0.0000  0.0000  0.0000      0.0000  0.0000  0.0000  0.0000  0.0000  0.0000  0.0000  0.0000  0.0000  0.0000
atom =  13  type =  2  l = 2
 
 onsite density matrix
 
spin component  1
 
  0.2812  0.0000  0.0000  0.0000  0.0000
  0.0000  0.2812  0.0000  0.0000  0.0000
  0.0000  0.0000  0.2812  0.0000  0.0000
  0.0000  0.0000  0.0000  0.2812  0.0000
  0.0000  0.0000  0.0000  0.0000  0.2812
 
spin component  2
 
  0.2078  0.0000  0.0000  0.0000  0.0000
  0.0000  0.2078  0.0000  0.0000  0.0000
  0.0000  0.0000  0.2078  0.0000  0.0000
  0.0000  0.0000  0.0000  0.2078  0.0000
  0.0000  0.0000  0.0000  0.0000  0.2078
 
 occupancies and eigenvectors
 
  o =  0.2078  v =  0.0000  0.0000  0.0000  0.0000  0.0000  1.0000  0.0000  0.0000  0.0000  0.0000      0.0000  0.0000  0.0000  0.0000  0.0000  0.0000  0.0000  0.0000  0.0000  0.0000
  o =  0.2078  v =  0.0000  0.0000  0.0000  0.0000  0.0000  0.0000  1.0000  0.0000  0.0000  0.0000      0.0000  0.0000  0.0000  0.0000  0.0000  0.0000  0.0000  0.0000  0.0000  0.0000
  o =  0.2078  v =  0.0000  0.0000  0.0000  0.0000  0.0000  0.0000  0.0000  1.0000  0.0000  0.0000      0.0000  0.0000  0.0000  0.0000  0.0000  0.0000  0.0000  0.0000  0.0000  0.0000
  o =  0.2078  v =  0.0000  0.0000  0.0000  0.0000  0.0000  0.0000  0.0000  0.0000  1.0000  0.0000      0.0000  0.0000  0.0000  0.0000  0.0000  0.0000  0.0000  0.0000  0.0000  0.0000
  o =  0.2078  v =  0.0000  0.0000  0.0000  0.0000  0.0000  0.0000  0.0000  0.0000  0.0000  1.0000      0.0000  0.0000  0.0000  0.0000  0.0000  0.0000  0.0000  0.0000  0.0000  0.0000
  o =  0.2812  v =  1.0000  0.0000  0.0000  0.0000  0.0000  0.0000  0.0000  0.0000  0.0000  0.0000      0.0000  0.0000  0.0000  0.0000  0.0000  0.0000  0.0000  0.0000  0.0000  0.0000
  o =  0.2812  v =  0.0000  1.0000  0.0000  0.0000  0.0000  0.0000  0.0000  0.0000  0.0000  0.0000      0.0000  0.0000  0.0000  0.0000  0.0000  0.0000  0.0000  0.0000  0.0000  0.0000
  o =  0.2812  v =  0.0000  0.0000  1.0000  0.0000  0.0000  0.0000  0.0000  0.0000  0.0000  0.0000      0.0000  0.0000  0.0000  0.0000  0.0000  0.0000  0.0000  0.0000  0.0000  0.0000
  o =  0.2812  v =  0.0000  0.0000  0.0000  1.0000  0.0000  0.0000  0.0000  0.0000  0.0000  0.0000      0.0000  0.0000  0.0000  0.0000  0.0000  0.0000  0.0000  0.0000  0.0000  0.0000
  o =  0.2812  v =  0.0000  0.0000  0.0000  0.0000  1.0000  0.0000  0.0000  0.0000  0.0000  0.0000      0.0000  0.0000  0.0000  0.0000  0.0000  0.0000  0.0000  0.0000  0.0000  0.0000
atom =  14  type =  2  l = 2
 
 onsite density matrix
 
spin component  1
 
  0.2812  0.0000  0.0000  0.0000  0.0000
  0.0000  0.2812  0.0000  0.0000  0.0000
  0.0000  0.0000  0.2812  0.0000  0.0000
  0.0000  0.0000  0.0000  0.2812  0.0000
  0.0000  0.0000  0.0000  0.0000  0.2812
 
spin component  2
 
  0.2078  0.0000  0.0000  0.0000  0.0000
  0.0000  0.2078  0.0000  0.0000  0.0000
  0.0000  0.0000  0.2078  0.0000  0.0000
  0.0000  0.0000  0.0000  0.2078  0.0000
  0.0000  0.0000  0.0000  0.0000  0.2078
 
 occupancies and eigenvectors
 
  o =  0.2078  v =  0.0000  0.0000  0.0000  0.0000  0.0000  1.0000  0.0000  0.0000  0.0000  0.0000      0.0000  0.0000  0.0000  0.0000  0.0000  0.0000  0.0000  0.0000  0.0000  0.0000
  o =  0.2078  v =  0.0000  0.0000  0.0000  0.0000  0.0000  0.0000  1.0000  0.0000  0.0000  0.0000      0.0000  0.0000  0.0000  0.0000  0.0000  0.0000  0.0000  0.0000  0.0000  0.0000
  o =  0.2078  v =  0.0000  0.0000  0.0000  0.0000  0.0000  0.0000  0.0000  1.0000  0.0000  0.0000      0.0000  0.0000  0.0000  0.0000  0.0000  0.0000  0.0000  0.0000  0.0000  0.0000
  o =  0.2078  v =  0.0000  0.0000  0.0000  0.0000  0.0000  0.0000  0.0000  0.0000  1.0000  0.0000      0.0000  0.0000  0.0000  0.0000  0.0000  0.0000  0.0000  0.0000  0.0000  0.0000
  o =  0.2078  v =  0.0000  0.0000  0.0000  0.0000  0.0000  0.0000  0.0000  0.0000  0.0000  1.0000      0.0000  0.0000  0.0000  0.0000  0.0000  0.0000  0.0000  0.0000  0.0000  0.0000
  o =  0.2812  v =  1.0000  0.0000  0.0000  0.0000  0.0000  0.0000  0.0000  0.0000  0.0000  0.0000      0.0000  0.0000  0.0000  0.0000  0.0000  0.0000  0.0000  0.0000  0.0000  0.0000
  o =  0.2812  v =  0.0000  1.0000  0.0000  0.0000  0.0000  0.0000  0.0000  0.0000  0.0000  0.0000      0.0000  0.0000  0.0000  0.0000  0.0000  0.0000  0.0000  0.0000  0.0000  0.0000
  o =  0.2812  v =  0.0000  0.0000  1.0000  0.0000  0.0000  0.0000  0.0000  0.0000  0.0000  0.0000      0.0000  0.0000  0.0000  0.0000  0.0000  0.0000  0.0000  0.0000  0.0000  0.0000
  o =  0.2812  v =  0.0000  0.0000  0.0000  1.0000  0.0000  0.0000  0.0000  0.0000  0.0000  0.0000      0.0000  0.0000  0.0000  0.0000  0.0000  0.0000  0.0000  0.0000  0.0000  0.0000
  o =  0.2812  v =  0.0000  0.0000  0.0000  0.0000  1.0000  0.0000  0.0000  0.0000  0.0000  0.0000      0.0000  0.0000  0.0000  0.0000  0.0000  0.0000  0.0000  0.0000  0.0000  0.0000
atom =  15  type =  2  l = 2
 
 onsite density matrix
 
spin component  1
 
  0.2812  0.0000  0.0000  0.0000  0.0000
  0.0000  0.2812  0.0000  0.0000  0.0000
  0.0000  0.0000  0.2812  0.0000  0.0000
  0.0000  0.0000  0.0000  0.2812  0.0000
  0.0000  0.0000  0.0000  0.0000  0.2812
 
spin component  2
 
  0.2078  0.0000  0.0000  0.0000  0.0000
  0.0000  0.2078  0.0000  0.0000  0.0000
  0.0000  0.0000  0.2078  0.0000  0.0000
  0.0000  0.0000  0.0000  0.2078  0.0000
  0.0000  0.0000  0.0000  0.0000  0.2078
 
 occupancies and eigenvectors
 
  o =  0.2078  v =  0.0000  0.0000  0.0000  0.0000  0.0000  1.0000  0.0000  0.0000  0.0000  0.0000      0.0000  0.0000  0.0000  0.0000  0.0000  0.0000  0.0000  0.0000  0.0000  0.0000
  o =  0.2078  v =  0.0000  0.0000  0.0000  0.0000  0.0000  0.0000  1.0000  0.0000  0.0000  0.0000      0.0000  0.0000  0.0000  0.0000  0.0000  0.0000  0.0000  0.0000  0.0000  0.0000
  o =  0.2078  v =  0.0000  0.0000  0.0000  0.0000  0.0000  0.0000  0.0000  1.0000  0.0000  0.0000      0.0000  0.0000  0.0000  0.0000  0.0000  0.0000  0.0000  0.0000  0.0000  0.0000
  o =  0.2078  v =  0.0000  0.0000  0.0000  0.0000  0.0000  0.0000  0.0000  0.0000  1.0000  0.0000      0.0000  0.0000  0.0000  0.0000  0.0000  0.0000  0.0000  0.0000  0.0000  0.0000
  o =  0.2078  v =  0.0000  0.0000  0.0000  0.0000  0.0000  0.0000  0.0000  0.0000  0.0000  1.0000      0.0000  0.0000  0.0000  0.0000  0.0000  0.0000  0.0000  0.0000  0.0000  0.0000
  o =  0.2812  v =  1.0000  0.0000  0.0000  0.0000  0.0000  0.0000  0.0000  0.0000  0.0000  0.0000      0.0000  0.0000  0.0000  0.0000  0.0000  0.0000  0.0000  0.0000  0.0000  0.0000
  o =  0.2812  v =  0.0000  1.0000  0.0000  0.0000  0.0000  0.0000  0.0000  0.0000  0.0000  0.0000      0.0000  0.0000  0.0000  0.0000  0.0000  0.0000  0.0000  0.0000  0.0000  0.0000
  o =  0.2812  v =  0.0000  0.0000  1.0000  0.0000  0.0000  0.0000  0.0000  0.0000  0.0000  0.0000      0.0000  0.0000  0.0000  0.0000  0.0000  0.0000  0.0000  0.0000  0.0000  0.0000
  o =  0.2812  v =  0.0000  0.0000  0.0000  1.0000  0.0000  0.0000  0.0000  0.0000  0.0000  0.0000      0.0000  0.0000  0.0000  0.0000  0.0000  0.0000  0.0000  0.0000  0.0000  0.0000
  o =  0.2812  v =  0.0000  0.0000  0.0000  0.0000  1.0000  0.0000  0.0000  0.0000  0.0000  0.0000      0.0000  0.0000  0.0000  0.0000  0.0000  0.0000  0.0000  0.0000  0.0000  0.0000
atom =  16  type =  2  l = 2
 
 onsite density matrix
 
spin component  1
 
  0.2812  0.0000  0.0000  0.0000  0.0000
  0.0000  0.2812  0.0000  0.0000  0.0000
  0.0000  0.0000  0.2812  0.0000  0.0000
  0.0000  0.0000  0.0000  0.2812  0.0000
  0.0000  0.0000  0.0000  0.0000  0.2812
 
spin component  2
 
  0.2078  0.0000  0.0000  0.0000  0.0000
  0.0000  0.2078  0.0000  0.0000  0.0000
  0.0000  0.0000  0.2078  0.0000  0.0000
  0.0000  0.0000  0.0000  0.2078  0.0000
  0.0000  0.0000  0.0000  0.0000  0.2078
 
 occupancies and eigenvectors
 
  o =  0.2078  v =  0.0000  0.0000  0.0000  0.0000  0.0000  1.0000  0.0000  0.0000  0.0000  0.0000      0.0000  0.0000  0.0000  0.0000  0.0000  0.0000  0.0000  0.0000  0.0000  0.0000
  o =  0.2078  v =  0.0000  0.0000  0.0000  0.0000  0.0000  0.0000  1.0000  0.0000  0.0000  0.0000      0.0000  0.0000  0.0000  0.0000  0.0000  0.0000  0.0000  0.0000  0.0000  0.0000
  o =  0.2078  v =  0.0000  0.0000  0.0000  0.0000  0.0000  0.0000  0.0000  1.0000  0.0000  0.0000      0.0000  0.0000  0.0000  0.0000  0.0000  0.0000  0.0000  0.0000  0.0000  0.0000
  o =  0.2078  v =  0.0000  0.0000  0.0000  0.0000  0.0000  0.0000  0.0000  0.0000  1.0000  0.0000      0.0000  0.0000  0.0000  0.0000  0.0000  0.0000  0.0000  0.0000  0.0000  0.0000
  o =  0.2078  v =  0.0000  0.0000  0.0000  0.0000  0.0000  0.0000  0.0000  0.0000  0.0000  1.0000      0.0000  0.0000  0.0000  0.0000  0.0000  0.0000  0.0000  0.0000  0.0000  0.0000
  o =  0.2812  v =  1.0000  0.0000  0.0000  0.0000  0.0000  0.0000  0.0000  0.0000  0.0000  0.0000      0.0000  0.0000  0.0000  0.0000  0.0000  0.0000  0.0000  0.0000  0.0000  0.0000
  o =  0.2812  v =  0.0000  1.0000  0.0000  0.0000  0.0000  0.0000  0.0000  0.0000  0.0000  0.0000      0.0000  0.0000  0.0000  0.0000  0.0000  0.0000  0.0000  0.0000  0.0000  0.0000
  o =  0.2812  v =  0.0000  0.0000  1.0000  0.0000  0.0000  0.0000  0.0000  0.0000  0.0000  0.0000      0.0000  0.0000  0.0000  0.0000  0.0000  0.0000  0.0000  0.0000  0.0000  0.0000
  o =  0.2812  v =  0.0000  0.0000  0.0000  1.0000  0.0000  0.0000  0.0000  0.0000  0.0000  0.0000      0.0000  0.0000  0.0000  0.0000  0.0000  0.0000  0.0000  0.0000  0.0000  0.0000
  o =  0.2812  v =  0.0000  0.0000  0.0000  0.0000  1.0000  0.0000  0.0000  0.0000  0.0000  0.0000      0.0000  0.0000  0.0000  0.0000  0.0000  0.0000  0.0000  0.0000  0.0000  0.0000
atom =  17  type =  2  l = 2
 
 onsite density matrix
 
spin component  1
 
  0.2812  0.0000  0.0000  0.0000  0.0000
  0.0000  0.2812  0.0000  0.0000  0.0000
  0.0000  0.0000  0.2812  0.0000  0.0000
  0.0000  0.0000  0.0000  0.2812  0.0000
  0.0000  0.0000  0.0000  0.0000  0.2812
 
spin component  2
 
  0.2078  0.0000  0.0000  0.0000  0.0000
  0.0000  0.2078  0.0000  0.0000  0.0000
  0.0000  0.0000  0.2078  0.0000  0.0000
  0.0000  0.0000  0.0000  0.2078  0.0000
  0.0000  0.0000  0.0000  0.0000  0.2078
 
 occupancies and eigenvectors
 
  o =  0.2078  v =  0.0000  0.0000  0.0000  0.0000  0.0000  1.0000  0.0000  0.0000  0.0000  0.0000      0.0000  0.0000  0.0000  0.0000  0.0000  0.0000  0.0000  0.0000  0.0000  0.0000
  o =  0.2078  v =  0.0000  0.0000  0.0000  0.0000  0.0000  0.0000  1.0000  0.0000  0.0000  0.0000      0.0000  0.0000  0.0000  0.0000  0.0000  0.0000  0.0000  0.0000  0.0000  0.0000
  o =  0.2078  v =  0.0000  0.0000  0.0000  0.0000  0.0000  0.0000  0.0000  1.0000  0.0000  0.0000      0.0000  0.0000  0.0000  0.0000  0.0000  0.0000  0.0000  0.0000  0.0000  0.0000
  o =  0.2078  v =  0.0000  0.0000  0.0000  0.0000  0.0000  0.0000  0.0000  0.0000  1.0000  0.0000      0.0000  0.0000  0.0000  0.0000  0.0000  0.0000  0.0000  0.0000  0.0000  0.0000
  o =  0.2078  v =  0.0000  0.0000  0.0000  0.0000  0.0000  0.0000  0.0000  0.0000  0.0000  1.0000      0.0000  0.0000  0.0000  0.0000  0.0000  0.0000  0.0000  0.0000  0.0000  0.0000
  o =  0.2812  v =  1.0000  0.0000  0.0000  0.0000  0.0000  0.0000  0.0000  0.0000  0.0000  0.0000      0.0000  0.0000  0.0000  0.0000  0.0000  0.0000  0.0000  0.0000  0.0000  0.0000
  o =  0.2812  v =  0.0000  1.0000  0.0000  0.0000  0.0000  0.0000  0.0000  0.0000  0.0000  0.0000      0.0000  0.0000  0.0000  0.0000  0.0000  0.0000  0.0000  0.0000  0.0000  0.0000
  o =  0.2812  v =  0.0000  0.0000  1.0000  0.0000  0.0000  0.0000  0.0000  0.0000  0.0000  0.0000      0.0000  0.0000  0.0000  0.0000  0.0000  0.0000  0.0000  0.0000  0.0000  0.0000
  o =  0.2812  v =  0.0000  0.0000  0.0000  1.0000  0.0000  0.0000  0.0000  0.0000  0.0000  0.0000      0.0000  0.0000  0.0000  0.0000  0.0000  0.0000  0.0000  0.0000  0.0000  0.0000
  o =  0.2812  v =  0.0000  0.0000  0.0000  0.0000  1.0000  0.0000  0.0000  0.0000  0.0000  0.0000      0.0000  0.0000  0.0000  0.0000  0.0000  0.0000  0.0000  0.0000  0.0000  0.0000
     EDDAV:  cpu time   17.0844: real time   17.1165
       DOS:  cpu time    0.0080: real time    0.0081
    CHARGE:  cpu time    0.6129: real time    0.6127
    MIXING:  cpu time    0.0030: real time    0.0025
    --------------------------------------------
      LOOP:  cpu time   19.0781: real time   19.1111

 eigenvalue-minimisations  :  9688
 total energy-change (2. order) :-0.5583312E+03  (-0.7688420E+02)
 number of electron     257.0000327 magnetization      15.1913378
 augmentation part       31.0732506 magnetization      14.9113911

 Broyden mixing:
  rms(total) = 0.66239E+01    rms(broyden)= 0.66225E+01
  rms(prec ) = 0.92175E+01
  weight for this iteration     100.00

 Free energy of the ion-electron system (eV)
  ---------------------------------------------------
  alpha Z        PSCENC =       987.58433093
  Ewald energy   TEWEN  =    -11766.27785526
  -Hartree energ DENC   =     -4051.35663613
  -exchange      EXHF   =         0.00000000
  -V(xc)+E(xc)   XCENC  =       287.28482297
  PAW double counting   =      9454.16135274    -8860.38847492
  entropy T*S    EENTRO =        -0.02758333
  eigenvalues    EBANDS =     -1963.71144396
  atomic energy  EATOM  =     15354.40023729
  Solvation  Ediel_sol  =         0.00000000
  ---------------------------------------------------
  free energy    TOTEN  =      -558.33124966 eV

  energy without entropy =     -558.30366634  energy(sigma->0) =     -558.31745800


--------------------------------------------------------------------------------------------------------




----------------------------------------- Iteration    1(   2)  ---------------------------------------


    POTLOK:  cpu time    0.1250: real time    0.1249
    SETDIJ:  cpu time    1.2408: real time    1.2412
atom =   2  type =  2  l = 2
 
 onsite density matrix
 
spin component  1
 
  0.1772  0.0000  0.0000  0.0008  0.0000
  0.0000  0.1542 -0.0000  0.0000  0.0004
  0.0000 -0.0000  0.2200  0.0000  0.0023
  0.0008  0.0000  0.0000  0.1564  0.0000
  0.0000  0.0004  0.0023  0.0000  0.2173
 
spin component  2
 
  0.1817  0.0000  0.0000 -0.0007  0.0000
  0.0000  0.2048 -0.0000  0.0000  0.0002
  0.0000 -0.0000  0.2786  0.0000  0.0029
 -0.0007  0.0000  0.0000  0.2052  0.0000
  0.0000  0.0002  0.0029  0.0000  0.2751
 
 occupancies and eigenvectors
 
  o =  0.1542  v =  0.0000 -1.0000 -0.0004 -0.0000  0.0059  0.0000  0.0000  0.0000  0.0000  0.0000      0.0000  0.0000  0.0000  0.0000  0.0000  0.0000  0.0000  0.0000  0.0000  0.0000
  o =  0.1563  v =  0.0364  0.0000  0.0000 -0.9993 -0.0000  0.0000  0.0000  0.0000  0.0000  0.0000      0.0000  0.0000  0.0000  0.0000  0.0000  0.0000  0.0000  0.0000  0.0000  0.0000
  o =  0.1772  v =  0.9993 -0.0000 -0.0000  0.0364  0.0000  0.0000  0.0000  0.0000  0.0000  0.0000      0.0000  0.0000  0.0000  0.0000  0.0000  0.0000  0.0000  0.0000  0.0000  0.0000
  o =  0.1817  v =  0.0000  0.0000  0.0000  0.0000  0.0000 -0.9996  0.0000  0.0000 -0.0280  0.0000      0.0000  0.0000  0.0000  0.0000  0.0000  0.0000  0.0000  0.0000  0.0000  0.0000
  o =  0.2048  v =  0.0000  0.0000  0.0000  0.0000  0.0000  0.0000  1.0000  0.0003  0.0000 -0.0033      0.0000  0.0000  0.0000  0.0000  0.0000  0.0000  0.0000  0.0000  0.0000  0.0000
  o =  0.2052  v =  0.0000  0.0000  0.0000  0.0000  0.0000 -0.0280  0.0000  0.0000  0.9996  0.0000      0.0000  0.0000  0.0000  0.0000  0.0000  0.0000  0.0000  0.0000  0.0000  0.0000
  o =  0.2159  v =  0.0000 -0.0053  0.4948  0.0000 -0.8690  0.0000  0.0000  0.0000  0.0000  0.0000      0.0000  0.0000  0.0000  0.0000  0.0000  0.0000  0.0000  0.0000  0.0000  0.0000
  o =  0.2214  v = -0.0000  0.0026  0.8690 -0.0000  0.4948  0.0000  0.0000  0.0000  0.0000  0.0000      0.0000  0.0000  0.0000  0.0000  0.0000  0.0000  0.0000  0.0000  0.0000  0.0000
[...]
     83      -1.6958      1.00000
     84      -1.6798      1.00000
     85      -1.6251      1.00000
     86      -1.5975      1.00000
     87      -1.5489      1.00000
     88      -1.4768      1.00000
     89      -1.3413      1.00000
     90      -1.2753      1.00000
     91      -1.2334      1.00000
     92      -1.2214      1.00000
     93      -1.1963      1.00000
     94      -1.1713      1.00000
     95      -1.1316      1.00000
     96      -1.0895      1.00000
     97      -1.0574      1.00000
     98      -1.0227      1.00000
     99      -1.0008      1.00000
    100      -0.9776      1.00000
    101      -0.9104      1.00000
    102      -0.8812      1.00000
    103      -0.8298      1.00000
    104      -0.6679      1.00000
    105      -0.5471      1.00000
    106      -0.5213      1.00000
    107      -0.4897      1.00000
    108      -0.4443      1.00000
    109      -0.4284      1.00000
    110      -0.4033      1.00000
    111      -0.2641      1.00000
    112      -0.2575      1.00000
    113      -0.1771      1.00000
    114      -0.1350      1.00000
    115      -0.1031      1.00000
    116      -0.0469      1.00000
    117      -0.0277      1.00000
    118       0.0020      1.00000
    119       0.0201      1.00000
    120       0.0869      1.00000
    121       0.1220      1.00000
    122       0.1391      1.00000
    123       0.1472      1.00000
    124       0.1810      1.00000
    125       0.1950      1.00000
    126       0.2311      1.00000
    127       0.3602      1.00000
    128       0.4120      1.00000
    129       3.2322      0.00003
    130       3.2778      0.00000
    131       3.2964      0.00000
    132       3.3146      0.00000
    133       3.3287      0.00000
    134       3.3537      0.00000
    135       3.3673      0.00000
    136       3.3891      0.00000
    137       3.4729      0.00000
    138       3.5118      0.00000
    139       3.5514      0.00000
    140       3.5673      0.00000
    141       3.5823      0.00000
    142       3.5945      0.00000
    143       3.6089      0.00000
    144       3.7532      0.00000
    145       3.7623      0.00000
    146       3.7873      0.00000
    147       3.8344      0.00000
    148       3.8505      0.00000
    149       3.8613      0.00000
    150       3.8707      0.00000
    151       3.8869      0.00000
    152       3.8977      0.00000
    153       3.9302      0.00000
    154       3.9361      0.00000
    155       3.9490      0.00000
    156       3.9648      0.00000
    157       3.9745      0.00000
    158       3.9780      0.00000
    159       3.9995      0.00000
    160       4.0275      0.00000
    161       4.0426      0.00000
    162       4.0512      0.00000
    163       4.0770      0.00000
    164       4.2051      0.00000
    165       4.2290      0.00000
    166       4.2633      0.00000
    167       4.3219      0.00000
    168       4.3441      0.00000
    169       4.4169      0.00000


--------------------------------------------------------------------------------------------------------


 soft charge-density along one line, spin component           1
         0         1         2         3         4         5         6         7         8         9
 total charge-density along one line
 
 soft charge-density along one line, spin component           2
         0         1         2         3         4         5         6         7         8         9
 total charge-density along one line
 
 pseudopotential strength for first ion, spin component:           1
  1.182  -0.043   0.000   0.003   0.000
 -0.043  -0.053  -0.000  -0.001  -0.000
  0.000  -0.000  -0.323  -0.001  -0.000
  0.003  -0.001  -0.001  -0.338   0.000
  0.000  -0.000  -0.000   0.000  -0.310
 pseudopotential strength for first ion, spin component:           2
  1.182  -0.043   0.000   0.003   0.000
 -0.043  -0.053  -0.000  -0.001  -0.000
  0.000  -0.000  -0.323  -0.001  -0.000
  0.003  -0.001  -0.001  -0.338   0.000
  0.000  -0.000  -0.000   0.000  -0.310
 total augmentation occupancy for first ion, spin component:           1
  0.938  -0.130   0.008  -0.025   0.000
 -0.130   0.020  -0.001   0.005   0.000
  0.008  -0.001   0.124  -0.003   0.000
 -0.025   0.005  -0.003   0.070   0.000
  0.000   0.000   0.000   0.000   0.176
 total augmentation occupancy for first ion, spin component:           2
 -0.000  -0.000  -0.000   0.000   0.000
 -0.000   0.000  -0.000   0.000   0.000
 -0.000  -0.000   0.000  -0.000   0.000
  0.000   0.000  -0.000   0.000   0.000
  0.000   0.000   0.000   0.000  -0.000


------------------------ aborting loop because EDIFF is reached ----------------------------------------


    CHARGE:  cpu time    0.6239: real time    0.6238
    FORLOC:  cpu time    0.0200: real time    0.0201
    FORNL :  cpu time    3.9464: real time    3.9468
    STRESS:  cpu time   11.8102: real time   11.8147
    FORCOR:  cpu time    0.1280: real time    0.1296
    FORHAR:  cpu time    0.0310: real time    0.0306
    MIXING:  cpu time    0.0040: real time    0.0044
    OFIELD:  cpu time    0.0000: real time    0.0001

  FORCE on cell =-STRESS in cart. coord.  units (eV):
  Direction    XX          YY          ZZ          XY          YZ          ZX
  --------------------------------------------------------------------------------------
  Alpha Z   987.58433   987.58433   987.58433
  Ewald   -4112.03408 -4143.39652 -3510.89909     0.00021    14.49704    -0.00030
  Hartree  1447.99492  1443.87063  1668.61170     0.00003     4.58718    -0.00011
  E(xc)   -1225.70516 -1225.43203 -1226.41033    -0.00000    -0.16520     0.00002
  Local   -1288.98264 -1257.96590 -2086.43331    -0.00019   -18.35754     0.00043
  n-local  -761.30867  -762.72779  -758.42582     0.00839     0.15850     0.02218
  augment   296.10307   296.30641   293.99615    -0.00000     0.00317    -0.00000
  Kinetic  4641.55374  4643.25404  4623.39160    -0.11893    -0.23923    -0.11241
  Fock        0.00000     0.00000     0.00000     0.00000     0.00000     0.00000
  -------------------------------------------------------------------------------------
  Total     -14.79449   -18.50683    -8.58478     0.00000     0.48391     0.00000
  in kB     -42.30106   -52.91552   -24.54596     0.00000     1.38363     0.00000
  external pressure =      -39.92 kB  Pullay stress =        0.00 kB


 VOLUME and BASIS-vectors are now :
 -----------------------------------------------------------------------------
  energy-cutoff  :      400.00
  volume of cell :      560.35
      direct lattice vectors                 reciprocal lattice vectors
     7.739170000  0.000000000  0.000000000     0.129212823  0.000000000  0.000000000
     0.000000000  7.739170000  0.000000000     0.000000000  0.129212823  0.000000000
     0.000000000  0.000000000  9.355580000     0.000000000  0.000000000  0.106888082

  length of vectors
     7.739170000  7.739170000  9.355580000     0.129212823  0.129212823  0.106888082


 FORCES acting on ions
    electron-ion (+dipol)            ewald-force                    non-local-force                 convergence-correction
 -----------------------------------------------------------------------------------------------
   0.280E-03 0.377E+00 -.119E+01   -.405E-03 -.344E+00 0.650E+00   0.000E+00 -.110E+00 0.344E+00   0.493E-05 -.136E-04 -.162E-03
   -.714E-04 0.154E+00 0.176E+01   0.498E-03 -.124E+00 -.180E+01   0.000E+00 -.102E-01 0.230E-02   -.292E-04 0.473E-04 0.262E-02
   -.705E-04 0.822E+00 -.175E+01   0.490E-03 -.851E+00 0.186E+01   0.000E+00 -.855E-02 -.244E-01   -.292E-04 -.164E-02 -.492E-03
   0.169E+01 -.469E+01 0.150E+01   -.172E+01 0.461E+01 -.145E+01   0.181E-01 0.580E-01 -.820E-02   0.119E-02 -.158E-02 -.608E-03
   0.216E+01 -.121E+01 -.389E+01   -.218E+01 0.126E+01 0.379E+01   0.172E-01 -.197E-01 0.712E-01   0.159E-02 0.114E-03 -.160E-02
   -.712E-04 0.377E+00 -.139E+01   0.495E-03 -.375E+00 0.140E+01   0.000E+00 -.173E-01 -.706E-02   -.291E-04 -.584E-04 0.372E-03
   -.794E-04 -.514E+00 -.144E+01   0.528E-03 0.610E+00 0.150E+01   0.000E+00 -.204E-01 -.229E-01   -.292E-04 0.163E-02 -.284E-03
   0.156E+01 0.560E+01 0.132E+01   -.158E+01 -.563E+01 -.128E+01   0.253E-01 0.509E-02 -.147E-01   0.932E-03 0.158E-02 -.677E-03
   -.793E+00 -.978E+00 0.289E+01   0.814E+00 0.104E+01 -.298E+01   -.230E-01 -.194E-01 0.256E-01   0.820E-03 -.887E-04 0.496E-03
   0.467E-03 -.965E-02 0.657E+01   -.150E-02 0.644E-03 -.644E+01   0.000E+00 -.772E-02 -.134E+00   0.297E-04 0.731E-05 -.431E-03
   0.434E-03 -.377E+01 -.118E+01   -.149E-02 0.360E+01 0.127E+01   0.000E+00 0.133E+00 -.457E-01   0.298E-04 0.361E-04 0.129E-02
   -.169E+01 -.469E+01 0.150E+01   0.172E+01 0.461E+01 -.145E+01   -.181E-01 0.580E-01 -.820E-02   -.119E-02 -.158E-02 -.610E-03
   -.216E+01 -.121E+01 -.389E+01   0.218E+01 0.126E+01 0.379E+01   -.172E-01 -.197E-01 0.712E-01   -.160E-02 0.114E-03 -.160E-02
   0.450E-03 0.156E+00 -.206E+01   -.149E-02 -.155E+00 0.205E+01   0.000E+00 -.118E-01 0.998E-02   0.296E-04 -.820E-05 -.290E-03
   0.425E-03 0.448E+01 -.120E+01   -.144E-02 -.436E+01 0.126E+01   0.000E+00 -.127E+00 -.320E-01   0.297E-04 -.525E-04 0.121E-02
   -.156E+01 0.560E+01 0.132E+01   0.158E+01 -.563E+01 -.128E+01   -.253E-01 0.509E-02 -.147E-01   -.933E-03 0.158E-02 -.679E-03
   0.793E+00 -.978E+00 0.289E+01   -.813E+00 0.104E+01 -.298E+01   0.230E-01 -.194E-01 0.256E-01   -.820E-03 -.888E-04 0.498E-03
   -.755E-04 0.714E+00 -.424E+02   0.586E-03 -.156E+01 0.497E+02   0.000E+00 0.861E+00 -.727E+01   -.492E-04 -.197E-02 0.851E-03
   -.109E-03 0.250E+00 -.482E+02   0.764E-03 -.489E+00 0.581E+02   0.000E+00 0.252E+00 -.989E+01   -.539E-04 0.903E-04 -.831E-03
   -.107E-03 -.792E+00 0.463E+02   0.747E-03 0.829E+00 -.556E+02   0.000E+00 -.338E-01 0.928E+01   -.536E-04 -.109E-02 -.121E-02
   -.194E+01 -.136E+00 -.472E+02   0.191E+01 0.184E+00 0.562E+02   0.314E-01 -.436E-01 -.901E+01   0.854E-03 0.679E-04 0.357E-02
   -.914E-04 -.134E+01 0.423E+02   0.732E-03 0.165E+01 -.499E+02   0.000E+00 -.311E+00 0.760E+01   -.495E-04 0.131E-03 0.430E-03
   0.269E+01 -.283E+01 -.485E+02   -.256E+01 0.181E+01 0.562E+02   -.133E+00 0.102E+01 -.773E+01   0.137E-02 -.181E-02 -.403E-03
   0.206E+02 -.142E+01 0.460E+02   -.247E+02 0.199E+01 -.538E+02   0.410E+01 -.563E+00 0.772E+01   0.446E-03 -.467E-03 -.285E-02
   0.186E+00 -.246E+01 0.476E+02   -.441E-03 0.204E+01 -.557E+02   -.186E+00 0.441E+00 0.816E+01   0.842E-03 -.109E-02 -.125E-03
   -.306E-03 -.818E+00 -.421E+02   0.162E-02 0.164E+01 0.496E+02   0.000E+00 -.847E+00 -.743E+01   -.494E-04 0.192E-02 0.130E-02
   -.109E-03 0.323E+00 -.452E+02   0.754E-03 -.604E+00 0.534E+02   0.000E+00 0.283E+00 -.814E+01   -.535E-04 -.178E-03 -.152E-02
   -.110E-03 0.404E+00 0.457E+02   0.773E-03 -.470E+00 -.546E+02   0.000E+00 0.684E-01 0.894E+01   -.537E-04 0.113E-02 -.130E-02
   -.967E+00 -.337E-02 -.475E+02   0.966E+00 0.612E-01 0.566E+02   0.701E-03 -.593E-01 -.903E+01   0.116E-03 -.427E-04 0.330E-02
   -.909E-04 -.255E+00 0.471E+02   0.720E-03 0.394E+00 -.561E+02   0.000E+00 -.138E+00 0.894E+01   -.491E-04 -.653E-04 0.194E-02
   0.263E+01 0.653E+01 -.484E+02   -.260E+01 -.697E+01 0.563E+02   -.371E-01 0.441E+00 -.789E+01   0.125E-02 0.153E-02 -.110E-02
   -.584E+01 -.104E+01 0.443E+02   0.669E+01 0.158E+01 -.514E+02   -.816E+00 -.545E+00 0.709E+01   0.130E-02 0.723E-03 -.303E-02
   -.129E-01 0.381E+01 0.479E+02   0.204E+00 -.378E+01 -.561E+02   -.190E+00 -.277E-01 0.817E+01   0.747E-03 0.105E-02 0.572E-03
   -.545E-02 -.166E+02 -.358E+02   -.215E-02 0.187E+02 0.420E+02   0.000E+00 -.209E+01 -.614E+01   0.502E-04 -.825E-03 0.104E-02
   -.653E-02 -.376E+00 -.390E+02   -.118E-02 0.607E+00 0.475E+02   0.000E+00 -.219E+00 -.845E+01   0.555E-04 0.117E-03 -.167E-03
   -.650E-02 -.917E+00 0.472E+02   -.120E-02 0.974E+00 -.560E+02   0.000E+00 -.471E-01 0.879E+01   0.552E-04 -.695E-03 -.207E-02
   0.194E+01 -.136E+00 -.472E+02   -.191E+01 0.184E+00 0.562E+02   -.314E-01 -.436E-01 -.901E+01   -.855E-03 0.680E-04 0.357E-02
   -.543E-02 -.554E+00 0.242E+02   -.203E-02 0.679E+00 -.296E+02   0.000E+00 -.124E+00 0.535E+01   0.498E-04 0.122E-03 0.368E-03
   -.269E+01 -.283E+01 -.485E+02   0.256E+01 0.181E+01 0.562E+02   0.133E+00 0.102E+01 -.773E+01   -.137E-02 -.181E-02 -.400E-03
   -.206E+02 -.142E+01 0.460E+02   0.247E+02 0.199E+01 -.538E+02   -.410E+01 -.563E+00 0.772E+01   -.445E-03 -.467E-03 -.285E-02
   -.186E+00 -.246E+01 0.476E+02   0.207E-02 0.204E+01 -.557E+02   0.186E+00 0.441E+00 0.816E+01   -.844E-03 -.109E-02 -.129E-03
   -.566E-02 0.163E+02 -.358E+02   -.120E-02 -.180E+02 0.421E+02   0.000E+00 0.180E+01 -.624E+01   0.498E-04 0.772E-03 0.123E-02
   -.649E-02 -.526E+00 -.476E+02   -.119E-02 0.743E+00 0.557E+02   0.000E+00 -.210E+00 -.813E+01   0.550E-04 -.287E-04 0.337E-03
   -.651E-02 0.560E+00 0.468E+02   -.117E-02 -.374E+00 -.554E+02   0.000E+00 -.177E+00 0.866E+01   0.551E-04 0.696E-03 -.201E-02
   0.966E+00 -.337E-02 -.475E+02   -.964E+00 0.612E-01 0.566E+02   -.701E-03 -.593E-01 -.903E+01   -.117E-03 -.428E-04 0.331E-02
   -.541E-02 -.814E+00 0.469E+02   -.207E-02 0.100E+01 -.558E+02   0.000E+00 -.185E+00 0.889E+01   0.496E-04 -.515E-04 0.103E-02
   -.264E+01 0.653E+01 -.484E+02   0.260E+01 -.697E+01 0.563E+02   0.371E-01 0.441E+00 -.789E+01   -.125E-02 0.153E-02 -.110E-02
   0.584E+01 -.104E+01 0.443E+02   -.669E+01 0.158E+01 -.514E+02   0.816E+00 -.545E+00 0.709E+01   -.130E-02 0.722E-03 -.304E-02
   0.127E-01 0.381E+01 0.479E+02   -.202E+00 -.378E+01 -.561E+02   0.190E+00 -.277E-01 0.817E+01   -.748E-03 0.105E-02 0.567E-03
 -----------------------------------------------------------------------------------------------
   -.615E-01 -.755E-01 0.481E-01   -.588E-13 -.915E-13 -.355E-13   0.333E-15 0.651E-01 -.339E-01   0.264E-05 0.566E-05 -.167E-02
 
 
 POSITION                                       TOTAL-FORCE (eV/Angst)
 -----------------------------------------------------------------------------------
      3.86959      0.04062      0.41078         0.000000     -0.077133     -0.198293
      0.00000      7.73761      4.71787         0.000000      0.020053     -0.034547
      0.00000      1.94436      6.99013         0.000000     -0.038552      0.084771
      1.90015      1.98878      9.34887        -0.011465     -0.020917      0.037137
      1.89684      7.73778      2.37931         0.000743      0.034828     -0.027196
      0.00000      3.87392      4.66887         0.000000     -0.015089      0.004232
      0.00000      5.78659      7.00162         0.000000      0.076691      0.034029
      1.90220      5.79890      0.00086         0.011800     -0.028104      0.022809
      1.93610      3.86709      2.36390        -0.000951      0.040296     -0.067094
      3.86959      0.01005      4.67559         0.000000     -0.016514     -0.004267
      3.86959      1.95562      6.99913         0.000000     -0.042080      0.038801
      5.83902      1.98878      9.34887         0.011465     -0.020917      0.037137
      5.84233      7.73778      2.37931        -0.000743      0.034828     -0.027196
      3.86959      3.88178      4.67597         0.000000     -0.010355      0.003205
      3.86959      5.80849      7.00489         0.000000     -0.001492      0.036049
      5.83698      5.79890      0.00086        -0.011800     -0.028104      0.022809
      5.80307      3.86709      2.36390         0.000951      0.040296     -0.067094
      0.00000      1.93901      8.99668         0.000000      0.016693      0.016855
      0.00000      0.00010      6.66494         0.000000      0.013895      0.005925
      0.00000      1.93839      5.03137         0.000000      0.002701     -0.007079
      1.93828      0.00434      4.33054        -0.000491      0.004634      0.019078
      0.00000      0.01223      2.71109         0.000000     -0.001904      0.002589
      1.92450      1.94955      1.97664        -0.004632     -0.005261      0.019374
      1.96113      0.01438      0.37514        -0.006397     -0.001479     -0.010162
      1.93452      1.94463      7.37500        -0.000811      0.015135     -0.003730
      0.00000      5.83185      9.00384         0.000000     -0.024734      0.000767
      0.00000      3.87159      6.65955         0.000000      0.001606      0.005740
      0.00000      5.80549      5.03621         0.000000      0.003778     -0.019842
      1.93523      3.87629      4.32519        -0.000433     -0.001284      0.029116
      0.00000      3.87586      2.69944         0.000000      0.001850      0.007933
      1.91926      5.81118      1.98317         0.000572     -0.002937      0.005050
      1.95222      3.88516      0.34890         0.031606     -0.011865     -0.001405
      1.93473      5.79795      7.38233         0.000444      0.000430     -0.016982
      3.86959      1.85260      9.01450         0.000000     -0.019174      0.004186
      3.86959      0.00714      6.64359         0.000000      0.012376      0.006585
      3.86959      1.94320      5.03425         0.000000      0.009812     -0.012617
      5.80089      0.00434      4.33054         0.000491      0.004634      0.019078
      3.86959      0.01086      2.63334         0.000000      0.001550      0.010262
      5.81467      1.94955      1.97664         0.004632     -0.005261      0.019374
      5.77804      0.01438      0.37514         0.006397     -0.001479     -0.010162
      5.80465      1.94463      7.37500         0.000811      0.015135     -0.003730
      3.86959      5.92767      9.01986         0.000000      0.019707     -0.000524
      3.86959      3.87818      6.67190         0.000000      0.006887     -0.000785
      3.86959      5.81217      5.03712         0.000000      0.009476     -0.011410
      5.80394      3.87629      4.32519         0.000433     -0.001284      0.029116
      3.86959      3.88071      2.70237         0.000000      0.003005      0.015447
      5.81992      5.81118      1.98317        -0.000572     -0.002937      0.005050
      5.78695      3.88516      0.34890        -0.031606     -0.011865     -0.001405
      5.80444      5.79795      7.38233        -0.000444      0.000430     -0.016982
 -----------------------------------------------------------------------------------
    total drift:                               -0.061454     -0.010339      0.012449


--------------------------------------------------------------------------------------------------------



  FREE ENERGIE OF THE ION-ELECTRON SYSTEM (eV)
  ---------------------------------------------------
  free  energy   TOTEN  =      -428.16324835 eV

  energy  without entropy=     -428.11960712  energy(sigma->0) =     -428.14142774
 


--------------------------------------------------------------------------------------------------------


    POTLOK:  cpu time    1.3578: real time    1.3574


--------------------------------------------------------------------------------------------------------


 writing wavefunctions
     LOOP+:  cpu time  309.0460: real time  309.5365
    4ORBIT:  cpu time    0.0000: real time    0.0000

 total amount of memory used by VASP on root node    84971. kBytes
========================================================================

   base      :      30000. kBytes
   nonlr-proj:       6222. kBytes
   fftplans  :       3360. kBytes
   grid      :       9016. kBytes
   one-center:         86. kBytes
   wavefun   :      36287. kBytes
 
  
  
 General timing and accounting informations for this job:
 ========================================================
  
                  Total CPU time used (sec):      317.849
                            User time (sec):      314.609
                          System time (sec):        3.240
                         Elapsed time (sec):      318.644
  
                   Maximum memory used (kb):       99148.
                   Average memory used (kb):           0.
  
                          Minor page faults:        27043
                          Major page faults:            0
                 Voluntary context switches:          471
